/*--------------------------------*- C++ -*----------------------------------*\
| =========                 |                                                 |
| \\      /  F ield         | OpenFOAM: The Open Source CFD Toolbox           |
|  \\    /   O peration     | Version:  5.x                                   |
|   \\  /    A nd           | Web:      www.OpenFOAM.org                      |
|    \\/     M anipulation  |                                                 |
\*---------------------------------------------------------------------------*/
/*   Windows 32 and 64 bit porting by blueCAPE: http://www.bluecape.com.pt   *\
|  Based on Windows porting (2.0.x v4) by Symscape: http://www.symscape.com   |
\*---------------------------------------------------------------------------*/
FoamFile
{
    version     2.0;
    format      ascii;
    class       volScalarField;
    location    "0.00000000";
    object      nut;
}
// * * * * * * * * * * * * * * * * * * * * * * * * * * * * * * * * * * * * * //

dimensions      [0 2 -1 0 0 0 0];

internalField   nonuniform List<scalar> 
51000
(
3.39029e-010
1.3547e-011
4.47874e-012
9.8298e-011
3.45958e-011
1.15642e-010
3.32438e-010
1.62055e-010
1.04074e-011
1.4111e-011
2.72245e-010
3.07895e-010
1.13471e-009
8.98562e-009
3.3474e-009
1.2947e-009
2.81011e-010
2.57667e-009
8.42783e-010
3.59278e-010
1.46034e-009
7.82826e-009
5.38129e-009
2.77874e-010
7.83528e-010
4.79902e-010
4.52092e-010
1.56066e-009
2.19145e-009
1.33511e-009
3.36978e-009
1.11746e-010
1.43655e-011
5.28795e-010
1.47887e-009
1.26604e-008
4.13421e-008
1.50822e-008
7.58581e-010
5.81718e-010
4.0253e-009
2.56319e-009
1.707e-008
5.77128e-008
2.86284e-008
1.39257e-008
2.06585e-009
6.82413e-009
5.36002e-009
4.4813e-009
5.09213e-009
1.53973e-008
3.33999e-008
5.37199e-009
3.56913e-009
2.45741e-009
2.66663e-009
8.2003e-009
1.55645e-008
1.17007e-008
8.06057e-009
1.53417e-009
2.05871e-010
7.44216e-010
3.34162e-009
6.9352e-008
8.64111e-007
9.4861e-007
1.11627e-007
5.04938e-009
4.15922e-009
1.35794e-008
3.60021e-008
1.74674e-007
1.26819e-007
1.02756e-007
1.91631e-008
1.04079e-008
1.19919e-008
1.27088e-008
4.63151e-008
1.15818e-008
2.19035e-008
2.16422e-008
6.15703e-009
4.90767e-009
4.71151e-009
1.01266e-008
2.8281e-008
2.35497e-008
5.11924e-009
2.05276e-009
1.61095e-009
5.12732e-010
1.02724e-009
5.6475e-008
1.86539e-006
8.53356e-006
5.07569e-006
3.22563e-007
9.82212e-009
2.74416e-008
3.43335e-008
3.49623e-007
3.54593e-007
5.86483e-007
2.31645e-007
2.95318e-007
1.44939e-006
3.3328e-007
7.51472e-007
2.85395e-007
3.47684e-008
6.2849e-008
1.21328e-008
3.66231e-009
8.64238e-009
1.32046e-008
4.90983e-008
4.34147e-008
9.07749e-009
2.93163e-009
2.24847e-009
3.18961e-010
4.39718e-010
7.04255e-009
1.0231e-006
3.4431e-006
1.38948e-005
4.09745e-006
2.82333e-007
7.58491e-009
5.15018e-008
5.08753e-007
2.6804e-007
1.46636e-006
1.48491e-006
2.12499e-006
4.86302e-006
5.02144e-006
5.0189e-006
1.07165e-005
2.18818e-007
1.33941e-007
6.80028e-008
7.97177e-010
3.05684e-008
4.33985e-008
1.34015e-007
2.67123e-007
2.1235e-007
6.09358e-009
7.73246e-009
1.27301e-009
2.04627e-008
9.69292e-009
3.7527e-007
1.85621e-006
2.97162e-007
1.12877e-005
1.13025e-006
3.20402e-008
6.2765e-008
6.28401e-007
1.56438e-007
7.75777e-007
2.8651e-006
6.27906e-006
5.96869e-006
8.01205e-006
4.03382e-006
3.2762e-005
1.4811e-006
2.32387e-007
3.93423e-007
3.62362e-008
3.36239e-007
1.99772e-007
3.17066e-007
1.60751e-006
3.89163e-007
2.0881e-007
1.16295e-008
3.88436e-009
1.21427e-007
1.99115e-007
6.7078e-008
1.72815e-006
1.18119e-006
1.74689e-006
4.21985e-006
6.12088e-007
6.20179e-008
9.14312e-007
4.52303e-007
1.44796e-007
8.03322e-007
6.7278e-006
4.48588e-006
8.00238e-006
4.22997e-006
2.45505e-005
7.71306e-006
2.02556e-007
8.12517e-007
2.96092e-007
7.61351e-007
1.1576e-006
7.53418e-007
3.04213e-006
3.72539e-007
1.09793e-006
5.83353e-007
2.01423e-009
2.19698e-007
8.34491e-007
2.65813e-008
1.61823e-006
1.86865e-006
1.6273e-006
2.21674e-007
1.07048e-005
7.71572e-008
1.94774e-006
3.82219e-006
1.9752e-007
1.28852e-007
1.87531e-006
1.63293e-006
5.2601e-006
3.89571e-006
4.74304e-006
9.62743e-006
1.44291e-007
8.66705e-007
5.44328e-007
6.07297e-007
2.22681e-006
2.28063e-006
3.56106e-006
3.06632e-006
1.03645e-006
5.04281e-006
1.43595e-007
1.61077e-007
1.41048e-006
4.64553e-007
3.95078e-007
5.99434e-006
3.57762e-006
1.16661e-006
7.31987e-006
3.17892e-006
3.90884e-006
3.39657e-005
1.81046e-006
1.83839e-007
7.89594e-007
3.96584e-007
1.79925e-006
4.09625e-006
2.34298e-006
5.9255e-006
2.66809e-007
1.33566e-006
8.32818e-007
3.53214e-007
2.09855e-006
4.93425e-007
2.39591e-006
4.7349e-006
1.21695e-006
6.5252e-006
1.07371e-005
3.30438e-008
1.19878e-006
1.43534e-006
6.2176e-009
5.11347e-006
4.97611e-006
3.53141e-006
4.50214e-007
6.79773e-006
3.44061e-006
3.61634e-005
4.35914e-005
1.70676e-006
1.85307e-006
6.39165e-007
5.29611e-006
2.65174e-006
4.44542e-006
4.52336e-006
9.65577e-006
4.17995e-006
1.83465e-006
3.60986e-007
1.54151e-006
9.94276e-007
3.89447e-007
5.33992e-007
1.28814e-007
1.21656e-006
1.56903e-005
1.01092e-006
4.97079e-007
1.85298e-006
5.22392e-008
2.13896e-006
3.26281e-006
1.34293e-006
4.88209e-006
5.686e-006
5.85951e-006
9.6243e-006
3.45954e-005
2.39961e-006
6.65854e-006
6.64217e-007
8.25187e-006
3.87299e-006
7.34226e-006
4.31829e-006
1.10852e-005
3.55305e-006
6.60193e-006
8.6845e-007
7.97079e-007
3.74285e-006
2.16336e-007
9.94466e-007
6.69557e-007
1.68132e-006
2.45352e-006
9.83281e-006
2.34849e-007
1.5717e-006
2.36534e-007
1.43831e-006
1.51005e-006
6.04119e-007
4.93382e-006
1.32325e-006
1.13904e-006
3.76479e-006
2.4952e-005
2.32005e-006
9.90148e-006
1.4637e-006
9.56971e-006
5.36476e-006
4.60187e-006
4.44669e-006
1.59937e-005
2.83223e-006
7.74268e-006
1.27341e-005
6.13499e-007
3.30155e-006
2.72114e-006
6.75799e-007
1.98436e-007
1.69126e-006
1.24172e-006
1.495e-005
1.54188e-006
1.05274e-006
5.08031e-007
1.97663e-006
1.98451e-006
8.63185e-007
4.23148e-006
1.38478e-006
8.83568e-006
9.59192e-006
2.37306e-005
1.03143e-005
1.98924e-006
5.59395e-006
2.874e-006
2.18331e-006
7.54451e-007
2.39759e-006
1.94837e-005
4.00794e-006
1.6121e-005
6.58988e-006
1.47814e-006
2.90883e-006
3.26577e-006
9.33424e-007
5.9967e-008
9.78976e-007
2.77409e-006
5.67583e-006
1.33078e-005
7.41592e-007
9.82296e-007
2.19127e-006
7.94869e-006
4.73597e-006
7.25839e-006
3.76941e-006
1.47148e-005
2.34999e-005
3.58236e-005
1.77584e-005
5.58704e-006
7.56188e-006
2.12255e-006
9.18451e-007
2.53632e-006
3.45928e-006
6.16978e-006
1.59827e-006
3.70901e-006
7.43067e-006
3.17964e-006
5.34321e-006
4.20166e-006
8.60099e-007
3.05058e-006
4.84814e-008
2.71124e-006
6.48205e-007
1.13561e-005
2.32893e-006
1.24983e-006
2.14753e-006
1.16518e-005
1.34022e-006
4.81312e-006
5.83583e-008
1.57896e-006
5.91081e-006
8.00271e-006
1.20888e-005
2.38689e-005
5.53552e-006
4.58626e-006
2.13046e-006
2.17585e-006
3.50565e-006
2.90338e-006
6.1518e-006
4.05604e-006
1.82668e-006
3.2317e-006
4.65908e-006
4.31873e-006
6.07894e-006
1.03705e-005
1.19354e-005
1.56188e-006
1.24341e-006
7.31497e-006
9.72156e-006
1.79444e-006
5.03986e-006
1.2695e-005
1.94789e-006
6.7388e-006
1.13537e-006
3.85659e-007
1.2968e-006
2.66595e-006
2.39526e-006
2.72321e-005
5.07572e-006
1.02359e-006
3.05019e-006
2.98084e-006
1.60643e-006
3.2812e-006
8.99885e-006
4.80536e-006
1.30709e-006
1.9683e-006
1.61148e-006
1.03605e-005
1.05301e-005
8.7612e-006
1.89713e-005
1.7365e-006
2.27213e-006
6.38679e-006
3.44767e-005
1.4888e-006
1.28841e-005
9.64917e-006
2.45719e-006
1.70778e-006
1.98468e-006
1.10509e-006
8.1506e-007
2.92538e-006
2.34438e-006
2.32849e-005
1.60835e-006
1.67015e-006
3.50037e-006
3.28048e-006
2.1448e-006
3.44715e-006
7.05083e-006
5.6387e-006
8.09352e-007
1.57963e-006
2.41128e-006
3.20459e-006
2.85431e-006
9.6652e-006
2.04497e-005
6.82299e-007
2.1781e-006
1.00443e-005
3.58439e-005
5.51212e-006
3.52021e-006
4.47977e-006
8.76472e-007
1.97318e-007
5.08332e-007
1.70637e-006
8.5801e-007
1.91683e-006
2.64779e-006
9.53201e-006
1.47912e-006
1.91683e-006
2.42825e-006
2.16319e-006
1.88942e-006
2.47854e-006
2.49204e-006
4.29008e-006
4.33879e-007
2.07275e-006
2.58578e-006
4.17576e-006
5.40723e-007
2.67412e-007
1.76027e-005
4.78928e-006
6.4898e-007
3.97774e-006
2.0089e-005
5.16242e-006
3.96314e-007
6.57347e-007
1.32928e-006
1.39031e-006
1.95045e-006
3.56453e-006
1.50892e-006
1.30137e-006
1.96577e-006
2.04995e-006
6.6498e-007
2.36343e-006
5.65479e-006
1.9829e-006
1.89266e-006
1.18268e-006
9.77454e-007
3.51119e-006
1.00119e-006
3.13268e-006
4.44007e-006
2.62756e-006
2.79976e-007
3.66977e-007
6.68389e-006
1.19626e-005
4.78934e-007
1.58581e-006
7.05552e-007
3.85935e-007
2.49389e-007
1.23525e-006
2.47609e-006
3.53111e-006
4.25852e-006
2.78384e-007
1.50127e-006
2.80131e-006
2.00896e-006
1.45202e-006
6.23496e-007
1.61662e-006
9.2473e-006
4.35339e-006
1.41965e-006
1.65589e-006
1.2449e-006
2.577e-006
7.83309e-006
5.49846e-006
4.32239e-006
3.38323e-006
1.87412e-006
2.27449e-007
1.07849e-006
3.71313e-006
1.03438e-006
3.96682e-007
4.21664e-007
3.01808e-007
5.25983e-006
8.14816e-006
3.516e-006
5.4973e-006
6.04806e-006
1.26315e-005
4.65157e-006
1.54841e-006
4.6729e-006
2.06655e-006
7.0117e-007
2.89034e-006
1.99893e-006
3.21794e-006
1.7756e-006
1.87562e-006
2.24134e-006
3.06199e-006
8.84646e-006
9.89242e-006
3.26915e-006
4.79137e-007
1.30469e-006
3.2049e-007
7.50672e-007
3.78533e-007
1.50422e-006
1.39823e-006
1.36936e-006
4.63122e-006
6.18335e-006
2.52454e-005
3.80727e-005
1.1215e-005
3.81648e-006
8.43786e-006
1.53158e-005
3.98654e-006
6.90554e-006
1.905e-006
1.38831e-006
3.316e-006
1.5297e-005
3.48742e-006
5.01969e-006
2.96947e-006
4.53318e-007
3.51216e-006
6.22052e-006
1.09762e-005
3.38286e-006
4.65441e-007
1.74457e-007
1.40739e-006
1.34995e-006
5.6675e-008
2.06498e-006
5.82937e-006
8.50949e-006
6.01692e-006
2.60409e-006
1.20991e-005
4.00735e-005
3.17025e-005
1.82822e-005
1.65044e-005
4.32432e-006
4.54927e-006
2.27344e-006
1.57484e-006
6.66868e-007
4.39414e-006
3.30477e-006
2.93514e-006
2.76047e-005
2.44281e-005
7.39732e-006
3.83958e-007
2.90638e-006
8.73789e-006
9.59204e-006
8.57583e-007
2.55819e-006
4.31907e-006
7.90747e-006
9.71636e-007
1.81734e-006
2.40543e-006
2.24287e-006
8.085e-007
2.39247e-006
2.25915e-006
2.82418e-006
9.06097e-007
5.53959e-006
3.28309e-006
2.32059e-006
1.31109e-006
1.01439e-006
2.10628e-006
1.40405e-006
1.08049e-006
2.22742e-006
5.89188e-007
1.1671e-005
2.73074e-005
1.83276e-005
2.89056e-006
1.62145e-007
5.16992e-006
1.17614e-005
2.91016e-006
1.44599e-006
3.14146e-006
4.91986e-006
3.28713e-006
1.09249e-006
9.58023e-006
6.17834e-006
1.65738e-006
2.09687e-006
1.73025e-006
3.86099e-006
2.89663e-006
2.85028e-006
1.2755e-006
9.16007e-007
1.60277e-006
2.32861e-006
1.03575e-006
2.44433e-007
3.40551e-007
1.71387e-006
1.10865e-006
2.27657e-007
8.48711e-006
1.56443e-005
9.62863e-006
2.92343e-006
1.86899e-006
6.95915e-006
4.53362e-006
1.71104e-006
3.88685e-006
4.36454e-006
1.84913e-006
1.23077e-006
4.36599e-006
4.93949e-006
3.53091e-006
1.11363e-006
1.78412e-006
2.43852e-006
3.96695e-006
4.04664e-006
1.25084e-006
4.44383e-007
1.50982e-006
2.49778e-006
2.33676e-006
1.10149e-006
2.56107e-007
2.21728e-006
7.59129e-007
2.06492e-007
1.71207e-007
1.33261e-006
3.07018e-006
2.83175e-006
1.51052e-006
1.40601e-006
3.7299e-006
4.40017e-006
4.23985e-006
4.74766e-006
1.65527e-006
2.13682e-006
2.97429e-006
5.72695e-006
3.96608e-006
1.01654e-006
1.12958e-006
2.78521e-007
3.09689e-006
3.52705e-006
9.34593e-007
2.71066e-007
2.07384e-006
2.7488e-006
2.21295e-006
5.38654e-007
2.21901e-006
3.62111e-006
9.50346e-007
2.41561e-007
3.52592e-007
6.28488e-007
1.16397e-006
1.23671e-006
7.48749e-007
1.36799e-007
2.97494e-006
4.18042e-006
2.42657e-006
1.58534e-006
2.96151e-006
6.23617e-006
3.76961e-006
2.04409e-006
6.68612e-007
2.26379e-006
1.28345e-006
9.89946e-007
1.27997e-006
3.37665e-006
2.34091e-006
2.78765e-006
3.53671e-006
3.94382e-006
1.13328e-005
3.61833e-006
2.496e-006
2.25825e-006
2.42795e-006
2.68985e-007
4.57283e-007
8.32504e-007
1.97269e-006
5.63252e-006
1.47161e-005
1.01134e-005
7.75619e-006
9.21838e-007
4.90682e-007
7.51678e-007
1.51655e-006
6.98219e-006
9.49047e-006
4.11654e-006
1.69242e-006
9.92849e-007
7.30844e-007
2.44991e-007
7.17521e-006
2.30902e-006
4.50723e-006
4.58066e-006
3.2058e-006
3.34885e-006
3.58708e-006
1.53537e-006
2.01955e-006
3.93792e-006
9.10557e-006
5.69028e-006
1.64427e-006
1.03625e-006
7.63218e-007
2.30316e-006
1.43708e-005
5.52377e-006
2.23283e-006
1.61769e-006
3.8196e-008
5.61384e-007
4.65641e-007
2.27376e-007
9.61866e-006
1.72123e-005
1.238e-005
5.27951e-006
4.42112e-006
4.04732e-006
1.81322e-006
5.60226e-007
3.81777e-006
5.42346e-006
7.14736e-006
1.29771e-005
1.23947e-005
7.86528e-006
6.32491e-006
3.80967e-006
1.47591e-006
5.75459e-006
3.35855e-006
2.90204e-006
2.3988e-006
1.6603e-006
2.06041e-006
2.05937e-006
1.59961e-006
2.12726e-006
3.42384e-007
2.41612e-006
8.5187e-006
1.37048e-006
3.31815e-006
3.1623e-006
5.70668e-006
7.24676e-006
4.93827e-006
1.75148e-006
2.27156e-006
4.3645e-007
1.01253e-006
1.82535e-006
1.0765e-005
2.71617e-005
1.76694e-005
5.12217e-006
6.11841e-006
3.87476e-006
1.84623e-006
3.37727e-006
3.51258e-006
3.22034e-006
3.22752e-006
3.04739e-006
2.71097e-006
2.47877e-006
2.44917e-006
4.21749e-007
3.48371e-007
1.07911e-005
2.44877e-005
5.37666e-007
2.40047e-006
2.30452e-006
5.7611e-006
4.95186e-006
3.25825e-006
9.65443e-006
2.87127e-006
1.45737e-006
2.51411e-006
6.26286e-007
4.04853e-006
9.95776e-006
5.82696e-006
1.57594e-006
3.17022e-006
2.47019e-006
1.17618e-006
4.03029e-006
4.6573e-006
3.4969e-006
2.87611e-006
2.87541e-006
2.05633e-006
1.51887e-006
8.00429e-007
1.41953e-006
8.76968e-006
1.70035e-005
1.69043e-005
1.77722e-006
4.49208e-006
2.41992e-005
1.20632e-005
2.21417e-006
1.67888e-006
3.38994e-006
1.37142e-005
1.56229e-006
1.53751e-007
2.74852e-007
1.13224e-006
2.97977e-006
1.30377e-006
1.97447e-006
3.90388e-006
5.16904e-006
1.21955e-005
6.92048e-006
3.07001e-006
2.51544e-006
1.21284e-006
1.14064e-006
1.99097e-006
2.14038e-006
1.77763e-006
4.65576e-007
3.07478e-006
5.06988e-006
3.63126e-006
1.40992e-006
7.23577e-006
2.43863e-005
2.6554e-005
6.45664e-006
7.27126e-007
1.69707e-005
2.60333e-005
1.19448e-005
1.59762e-006
1.5953e-006
1.65059e-006
1.32685e-006
3.0589e-007
2.71837e-006
4.95671e-006
4.27744e-006
9.30094e-006
1.10764e-005
5.80004e-007
6.84128e-007
5.18466e-007
7.79622e-007
1.84998e-006
2.77189e-006
2.51055e-006
1.76836e-011
1.96928e-010
3.82954e-009
2.27457e-009
2.83839e-011
1.65738e-010
7.1589e-010
3.84114e-008
5.55693e-008
2.9207e-008
1.62008e-008
3.80629e-009
1.86346e-010
1.25344e-009
7.75544e-009
3.59263e-010
9.38046e-009
6.70182e-008
8.15587e-008
6.4994e-009
2.66867e-010
6.57614e-009
2.11896e-008
1.83259e-008
1.20353e-009
6.63041e-011
1.04768e-009
3.14511e-010
2.67269e-012
6.58663e-011
3.81085e-010
3.01939e-009
2.05754e-008
1.22426e-008
2.50078e-009
9.59527e-009
3.96593e-010
2.41615e-007
4.93998e-007
2.75059e-007
1.38179e-007
2.34781e-008
5.41052e-010
1.79899e-008
4.73631e-008
1.48474e-009
8.11056e-008
4.96105e-007
1.13843e-006
3.81615e-007
1.31448e-008
1.50027e-007
1.52154e-007
9.04916e-008
8.72036e-009
4.57817e-010
4.49986e-009
2.8688e-010
1.29853e-009
1.40066e-009
1.73622e-009
7.39137e-009
3.91176e-008
1.78122e-008
5.69826e-009
6.21363e-008
1.55628e-008
2.46131e-007
1.09469e-006
6.95743e-007
4.54598e-007
1.38949e-007
2.08713e-009
2.91722e-008
1.61611e-007
5.44274e-009
1.20401e-007
7.49583e-007
2.65546e-006
3.2476e-006
2.66121e-006
2.35554e-006
9.53936e-007
4.08446e-007
8.65598e-008
5.82104e-010
3.70112e-008
4.9645e-009
7.87705e-009
1.01628e-008
1.38728e-008
2.44252e-008
6.14652e-008
2.05471e-008
5.57228e-009
1.15369e-007
1.63051e-007
7.52634e-008
1.26567e-006
1.03833e-006
7.50447e-007
6.57158e-007
6.65459e-008
1.48044e-008
2.86599e-007
9.97641e-008
5.0359e-008
5.04996e-007
1.66382e-006
3.51169e-006
3.28638e-006
2.67352e-006
5.54919e-006
1.4685e-006
4.2087e-007
3.31105e-008
4.44467e-007
2.61508e-007
1.03386e-008
4.92034e-008
1.53614e-008
2.11528e-007
1.48757e-007
3.83416e-008
3.78363e-009
1.48689e-007
4.76546e-007
3.82295e-008
8.90038e-007
8.75189e-007
4.45804e-007
1.50402e-006
9.32449e-007
7.01268e-009
3.1176e-007
6.29893e-007
5.31074e-008
3.38091e-007
6.99956e-007
2.96156e-006
3.39829e-006
1.68631e-006
7.54679e-006
9.29741e-007
5.37381e-007
1.58209e-007
3.2839e-006
1.21189e-005
7.89366e-008
2.01073e-007
3.09224e-006
6.02276e-007
8.04516e-007
9.4562e-008
8.40889e-009
1.38131e-007
7.23001e-007
5.28757e-008
4.33962e-007
3.30276e-007
1.40482e-008
1.11031e-006
6.48208e-006
4.93193e-008
3.53815e-007
1.32066e-006
9.57953e-007
5.47997e-007
6.90459e-007
3.00784e-006
7.12743e-006
4.04811e-006
2.02279e-006
2.35358e-006
3.50447e-008
5.52927e-008
1.61079e-006
2.84796e-005
6.33815e-006
4.22096e-007
5.42508e-006
1.24596e-006
4.18955e-006
1.38874e-007
1.68625e-007
1.19267e-007
7.73808e-007
7.87634e-008
4.89121e-008
1.59382e-007
6.94669e-008
1.03019e-006
6.261e-006
4.6029e-007
4.72197e-007
1.7918e-006
1.84652e-006
1.53359e-006
2.6641e-006
7.44422e-006
1.05751e-005
7.93557e-006
2.49524e-006
2.06214e-006
5.47839e-008
1.18186e-007
9.94179e-008
2.12631e-005
3.08501e-005
3.99458e-007
9.89386e-007
1.34701e-006
3.76911e-006
2.70732e-007
2.65628e-007
3.83193e-007
9.95005e-007
1.47564e-007
6.03698e-008
1.41142e-007
1.57454e-007
3.61329e-007
3.09531e-006
8.0931e-007
7.23256e-007
1.82816e-006
1.90703e-006
1.45454e-006
1.3516e-005
2.09175e-005
1.24074e-005
1.03731e-005
1.92507e-006
5.87604e-006
1.84385e-006
9.4077e-008
7.26065e-008
4.97447e-006
3.61939e-005
2.37588e-006
3.26144e-007
1.23389e-006
2.35547e-006
1.5683e-006
2.49261e-007
3.56575e-006
2.98554e-006
7.6816e-007
3.59973e-007
2.72932e-007
2.07198e-007
1.16757e-007
4.9023e-007
2.47098e-006
2.16355e-006
2.4026e-006
2.24939e-006
5.18894e-007
2.56426e-005
2.99418e-005
1.43131e-005
1.01542e-005
4.898e-006
4.65454e-006
1.95285e-006
1.12297e-006
3.83509e-008
3.57897e-007
2.62043e-005
8.58793e-006
1.15147e-006
7.58723e-007
5.71499e-007
4.24416e-006
2.44012e-008
6.55219e-007
2.96417e-006
2.10662e-006
6.60335e-007
8.62894e-007
4.80428e-007
1.71419e-007
6.88694e-008
2.85105e-006
4.35012e-006
4.84232e-006
2.76887e-006
1.51389e-006
1.46758e-005
3.55493e-005
1.55231e-005
1.09112e-005
8.08935e-006
4.76586e-006
3.52698e-006
9.49273e-007
2.09329e-007
1.24431e-007
1.26626e-005
1.25416e-005
2.2497e-006
1.54858e-006
7.96955e-007
2.40277e-006
4.53781e-007
3.4385e-007
3.17521e-006
2.35707e-006
9.82174e-007
1.13048e-005
2.16681e-007
3.84983e-007
6.68752e-007
3.50697e-006
1.29812e-006
3.49774e-006
2.94098e-006
1.1093e-006
9.02463e-007
2.26964e-005
6.06634e-006
3.66696e-006
7.08144e-006
3.76963e-006
5.67856e-006
6.09893e-007
7.82778e-007
8.2214e-007
1.2369e-006
1.14473e-005
2.81669e-006
8.73849e-007
5.28165e-007
2.55107e-007
3.5804e-006
5.60301e-007
3.26666e-006
2.15188e-006
2.64449e-006
1.56101e-005
1.39342e-006
4.74142e-007
3.31234e-006
5.80789e-006
1.2023e-006
1.66473e-006
3.04912e-006
6.00691e-007
7.55185e-007
4.01149e-007
2.24765e-007
6.81919e-007
3.08579e-006
3.33437e-006
1.58945e-006
4.37859e-006
7.21018e-007
1.42589e-006
2.61972e-006
5.16001e-006
3.48496e-006
1.51941e-007
1.02331e-007
1.42798e-007
5.92551e-007
2.46319e-006
3.56991e-006
2.7969e-006
4.20757e-006
1.43149e-005
1.80222e-006
1.60587e-006
5.59147e-006
4.51584e-006
1.30944e-006
2.41546e-006
3.17075e-006
6.82109e-007
9.23888e-007
1.27201e-006
5.75236e-007
1.0545e-006
8.01352e-007
4.19489e-006
3.44984e-006
2.03851e-006
1.14959e-006
1.88565e-006
1.68103e-006
2.65102e-006
5.99186e-006
3.94164e-007
4.05569e-007
1.09589e-009
1.2275e-005
4.86897e-006
4.21807e-006
3.2961e-006
3.01644e-006
1.21797e-005
5.58246e-006
7.86174e-006
5.68206e-006
1.90381e-006
2.438e-006
4.80051e-007
1.9477e-006
1.30651e-006
1.0758e-006
1.04843e-006
4.79415e-007
6.62319e-007
2.09475e-007
3.79762e-006
2.02857e-006
3.02178e-006
2.4048e-006
2.68453e-006
5.24275e-006
1.47271e-006
1.50878e-006
1.27613e-006
1.52954e-006
1.18915e-007
1.85261e-005
1.33569e-005
3.69929e-006
3.08587e-006
1.70172e-006
5.46862e-006
1.66291e-005
1.94039e-005
1.81027e-007
9.86344e-007
3.96251e-006
2.99325e-006
2.84799e-006
1.67236e-006
6.2553e-007
7.99129e-007
4.4753e-007
1.2533e-007
1.96753e-007
2.35911e-006
2.18723e-006
9.90452e-007
3.28111e-006
2.62323e-006
6.58624e-006
1.05904e-006
3.88465e-007
8.41063e-007
2.71428e-006
2.39362e-007
5.71477e-006
1.34133e-005
2.49432e-006
4.22935e-006
2.20461e-006
3.05693e-006
6.21561e-006
2.44364e-006
3.53777e-007
5.43793e-008
2.07769e-006
1.66473e-006
4.20383e-006
5.43703e-006
5.45631e-007
4.16954e-007
1.3121e-006
1.19568e-007
2.97362e-007
1.03998e-006
2.04615e-006
6.42542e-007
4.45856e-006
6.30326e-006
3.31298e-006
6.90766e-006
1.21325e-006
8.32496e-007
3.30652e-006
5.34413e-007
2.25241e-006
1.4099e-005
1.57103e-005
1.40848e-006
2.8727e-006
2.81672e-006
1.34367e-006
5.59141e-007
1.30014e-007
1.00445e-006
1.08829e-006
1.27504e-006
5.10806e-006
2.44772e-006
3.14813e-006
4.35833e-006
1.67457e-006
3.18584e-007
6.08319e-007
2.06606e-007
1.87151e-006
1.25201e-006
2.44106e-006
6.15717e-006
5.93308e-006
1.12366e-006
1.89129e-006
1.00124e-006
6.84406e-006
1.90162e-006
7.8112e-007
5.18743e-006
2.95383e-005
1.33172e-005
2.10947e-006
5.92551e-006
1.39569e-006
6.05797e-007
2.63288e-006
9.90368e-006
2.35335e-006
4.52642e-006
4.84411e-006
3.92799e-007
2.27469e-006
6.44371e-006
2.06751e-006
3.34317e-006
1.28282e-006
6.34091e-008
2.24667e-006
1.08242e-006
2.98453e-007
5.56247e-006
1.02184e-005
2.34116e-006
8.49238e-007
3.89944e-007
7.03603e-006
2.90221e-006
1.07086e-006
2.20766e-006
1.2765e-005
1.76488e-005
9.32166e-008
1.47814e-006
3.95527e-006
1.396e-006
1.25915e-005
3.21828e-006
2.69489e-006
1.90739e-006
2.40036e-006
6.7126e-007
5.66778e-006
7.87072e-006
2.79247e-006
3.50212e-007
3.37182e-006
2.61958e-006
2.54769e-006
1.31853e-006
4.63004e-008
2.15801e-006
9.29873e-006
6.59768e-006
5.2458e-006
6.31858e-007
3.54331e-006
3.47898e-006
1.33382e-006
1.66988e-006
2.99739e-006
1.16184e-006
3.01233e-007
4.12768e-006
1.7936e-005
8.18212e-006
1.33861e-005
9.70006e-007
1.4684e-006
2.26762e-006
2.1034e-005
4.10726e-006
1.13078e-006
8.76862e-006
2.64558e-006
1.49495e-006
2.05104e-006
3.82166e-006
2.54092e-006
1.40692e-006
3.43138e-008
5.70531e-007
9.78759e-006
1.6923e-005
2.31304e-005
6.02245e-006
8.75803e-007
2.27188e-006
2.6944e-006
7.47225e-007
9.89395e-007
3.03357e-007
1.24874e-007
2.59789e-005
7.12482e-006
6.69252e-006
1.9422e-005
1.34256e-005
6.52675e-006
4.24884e-006
1.27329e-005
5.32179e-006
1.7502e-006
3.98681e-006
2.65243e-006
1.69586e-006
1.45213e-006
3.37845e-006
2.69034e-006
8.99006e-007
8.11811e-007
9.53862e-007
1.66534e-006
2.81742e-005
2.08456e-005
9.97816e-006
2.04406e-006
1.96312e-006
2.56695e-006
1.91091e-006
1.63005e-006
1.80726e-006
3.82747e-006
1.73093e-005
2.70614e-005
2.75493e-005
2.6451e-005
1.16222e-005
8.01849e-006
6.1799e-006
6.10192e-006
2.64296e-006
3.87834e-006
2.26693e-006
3.65433e-006
7.16265e-006
2.65021e-006
2.45998e-006
1.16612e-006
2.89797e-007
3.3555e-006
4.64485e-006
9.14365e-007
1.31302e-005
1.72636e-005
3.16902e-006
4.66413e-006
1.61037e-006
2.49914e-006
2.27201e-006
1.45841e-006
6.25475e-007
2.79719e-006
1.1044e-005
2.59235e-005
3.20321e-005
3.02837e-005
1.89669e-005
7.86828e-006
8.6828e-006
6.24702e-006
2.13298e-006
3.92258e-006
3.18588e-006
1.0572e-005
1.14414e-005
2.12051e-006
3.13172e-006
1.87299e-005
6.66024e-006
3.83637e-008
4.29454e-006
4.16491e-006
2.58706e-006
2.15992e-006
2.7507e-006
3.19411e-006
6.87392e-006
1.58357e-006
2.89022e-006
2.71351e-006
5.65434e-006
1.88576e-006
4.43881e-006
5.04201e-006
1.52817e-005
2.13622e-005
2.18305e-005
1.57646e-005
9.16021e-006
5.71518e-007
1.40326e-006
3.87796e-006
1.15361e-006
3.79597e-006
4.62638e-006
3.37467e-006
7.88895e-006
1.91025e-005
1.24602e-005
5.90547e-007
4.68078e-007
7.32106e-006
1.1204e-006
1.25542e-006
4.91286e-006
6.58254e-006
6.12937e-006
1.02398e-006
2.43757e-006
1.34032e-006
8.10347e-007
3.73907e-006
4.07863e-007
4.54727e-007
3.75237e-006
4.50764e-006
4.15428e-006
2.63566e-006
3.63986e-007
2.40579e-006
1.66088e-006
3.88144e-007
4.62449e-007
1.414e-006
3.31512e-006
1.98935e-006
1.50651e-006
2.89957e-006
6.56872e-006
2.49846e-006
9.68316e-007
1.88125e-006
2.34988e-006
1.01916e-006
4.09865e-006
2.35249e-006
4.84118e-006
2.17483e-006
7.64806e-007
4.19508e-006
3.86611e-007
4.37551e-006
2.71446e-006
3.53659e-007
1.46049e-006
3.49595e-006
2.90126e-006
2.01016e-006
3.05164e-006
3.37491e-006
1.14021e-006
5.56444e-008
1.68957e-007
1.77932e-006
3.14605e-006
7.92848e-007
1.66324e-007
3.342e-007
3.20263e-007
6.78033e-007
3.68025e-006
1.39451e-006
1.09439e-006
2.40838e-006
4.00679e-006
4.04032e-006
9.8902e-007
1.06554e-006
2.24812e-006
3.14579e-006
3.05486e-006
3.54011e-006
1.18084e-006
4.38807e-006
3.15666e-006
1.94246e-006
1.3409e-006
2.26677e-006
2.79023e-006
1.55048e-006
4.95619e-007
3.72497e-008
4.07997e-007
4.18914e-006
5.47042e-006
2.00106e-006
3.08035e-006
8.37166e-007
7.8902e-007
7.75208e-007
6.86962e-006
1.35128e-006
7.73608e-007
4.43531e-006
4.11841e-006
3.31694e-006
2.79106e-006
1.42736e-006
5.85472e-006
4.31291e-006
2.65448e-006
2.38139e-006
6.06585e-006
3.37476e-006
1.51801e-006
1.81927e-007
1.43557e-007
6.01649e-007
1.01459e-006
9.60302e-007
1.60989e-006
1.04702e-006
9.76345e-007
5.24639e-006
2.7848e-006
8.6649e-007
6.48579e-006
1.2594e-006
4.39281e-007
7.4089e-007
5.8389e-006
9.68634e-007
7.89707e-007
2.05186e-006
4.751e-006
2.71902e-006
1.73572e-006
2.52278e-006
1.2111e-005
7.17034e-006
2.88494e-006
3.17652e-006
2.66914e-006
3.03891e-006
1.97748e-006
5.16146e-007
1.40566e-007
7.37035e-007
1.13185e-006
1.07169e-006
1.51429e-006
1.75425e-006
1.46009e-006
2.7278e-006
1.80922e-006
1.02965e-006
3.50596e-006
2.81501e-006
2.17842e-006
1.36324e-006
2.55323e-006
3.43855e-006
5.23957e-007
1.21068e-006
2.23585e-006
2.46313e-006
1.81387e-006
1.74358e-006
3.47915e-006
5.79316e-006
3.52857e-006
2.85234e-006
3.7836e-006
4.15595e-006
3.98489e-006
2.78789e-006
1.84039e-006
3.31895e-006
4.93905e-006
5.90421e-006
5.266e-006
3.47569e-006
2.31623e-006
1.65941e-006
9.72016e-007
1.29738e-006
3.04469e-006
2.26561e-006
2.61634e-006
2.42089e-006
3.25926e-006
5.88973e-006
7.40806e-007
1.74723e-006
2.38386e-006
2.38084e-006
1.8195e-006
2.20283e-006
2.91486e-006
4.27482e-006
4.66849e-006
4.29651e-006
2.69577e-006
1.65214e-006
2.71008e-006
2.36458e-006
2.38823e-006
3.31732e-006
3.39872e-006
5.45679e-006
1.14591e-005
6.99523e-006
3.75319e-006
2.83692e-006
1.11483e-006
4.70526e-007
2.03793e-006
1.46855e-006
1.74426e-006
1.58105e-006
7.21812e-007
2.20767e-007
3.1666e-007
2.8278e-006
8.56177e-007
1.46163e-006
1.51998e-005
4.04554e-006
1.92439e-006
1.51701e-007
5.8557e-006
4.58249e-006
3.51422e-006
3.16518e-006
5.94246e-006
2.50306e-006
1.80584e-006
4.16503e-006
7.98061e-006
3.73917e-006
4.9913e-006
3.92637e-006
2.82138e-006
2.15858e-006
9.39477e-007
4.66237e-007
1.17567e-006
1.49456e-006
1.34703e-006
1.36804e-006
1.13929e-006
1.86183e-007
1.91339e-006
1.68104e-006
4.84122e-007
2.88231e-006
3.27753e-006
1.49429e-006
3.78513e-006
2.18977e-005
1.46814e-005
2.17528e-006
2.58665e-006
4.61573e-006
2.253e-005
6.95422e-006
2.12507e-007
1.04596e-006
9.90626e-006
1.21882e-005
9.16228e-006
5.97135e-006
5.52642e-006
4.61809e-006
7.79456e-007
7.1852e-008
1.03805e-006
1.44979e-006
2.82107e-006
1.46103e-006
1.10282e-006
6.61957e-007
6.38145e-007
2.04182e-006
1.7129e-006
2.59301e-006
2.73201e-006
8.78411e-007
1.21328e-005
2.83887e-005
2.61925e-005
4.98101e-006
1.36894e-006
9.48218e-006
2.18928e-005
1.08878e-005
1.68973e-006
1.09825e-006
2.39652e-006
1.17811e-006
6.75479e-006
8.72759e-006
6.36066e-006
3.90993e-006
1.45081e-006
1.59728e-006
3.83286e-006
7.70054e-006
2.9222e-006
1.01495e-006
1.77732e-006
2.07319e-006
2.04954e-006
7.74157e-010
9.30795e-011
2.57321e-012
4.16296e-011
4.38854e-011
4.96951e-011
1.07003e-009
3.78825e-009
2.68552e-010
3.53726e-011
6.51127e-011
4.36686e-010
3.37417e-011
6.41583e-009
1.2184e-008
2.30253e-010
1.45258e-011
1.84424e-009
5.44669e-010
4.1614e-009
4.24449e-009
7.69041e-010
6.82111e-012
4.7478e-010
5.78505e-010
9.20364e-011
1.83111e-010
2.80467e-009
9.99326e-009
6.24816e-009
9.0185e-009
5.50249e-010
1.37292e-010
4.20385e-010
8.43603e-010
1.05077e-009
7.7829e-009
3.42325e-008
4.26092e-009
9.97881e-010
1.38706e-009
2.6115e-009
1.80807e-010
4.47501e-008
8.07381e-008
8.39628e-010
2.58923e-010
1.33392e-008
1.52538e-008
3.68039e-008
2.71312e-008
1.1325e-008
1.09331e-008
7.09675e-009
6.44632e-009
3.45857e-009
6.04814e-009
2.52302e-008
6.17624e-008
4.56678e-008
5.34339e-008
7.63257e-009
3.07937e-009
3.19514e-009
7.02112e-009
6.39953e-008
6.75218e-009
4.45964e-008
2.2129e-008
5.38792e-009
6.29418e-009
1.27371e-008
7.52329e-010
1.03576e-007
3.04604e-007
2.37117e-009
1.64722e-008
6.21725e-009
4.64386e-008
2.90191e-008
2.63177e-007
1.92291e-008
4.44877e-008
4.32538e-008
2.04548e-008
3.24958e-008
5.47098e-008
7.89623e-008
1.16481e-007
9.74673e-008
5.99081e-008
6.19463e-008
1.22934e-008
5.44944e-008
1.34912e-008
5.70973e-006
3.76157e-007
2.90426e-008
5.6387e-008
2.72844e-008
2.40051e-008
3.88852e-008
9.22108e-009
1.5638e-007
6.58651e-007
2.5415e-008
1.74122e-006
1.48406e-008
4.23424e-008
3.01168e-008
9.5726e-007
1.28176e-006
1.6067e-008
9.99385e-008
4.82815e-008
5.03585e-008
5.78138e-007
3.82794e-007
2.29263e-007
1.07887e-007
1.21909e-008
4.32525e-008
1.92543e-008
2.50691e-007
2.284e-007
2.99273e-006
1.29349e-005
1.87098e-007
9.10532e-008
1.11105e-007
1.66754e-007
6.25716e-008
1.1985e-006
1.48515e-007
9.25301e-007
2.36206e-007
5.78153e-006
2.93937e-006
2.76659e-008
6.52227e-008
3.3099e-007
1.64335e-005
5.46897e-006
1.73604e-008
1.00937e-007
2.84258e-008
1.00053e-006
5.10187e-006
8.35602e-007
1.67536e-007
3.11647e-008
1.05654e-007
4.08827e-008
4.01206e-007
1.03253e-006
1.11641e-006
6.62831e-006
3.19882e-006
2.0852e-007
3.56461e-007
6.47106e-007
9.79462e-007
2.24945e-006
1.36486e-006
8.79926e-007
2.49148e-007
2.53898e-007
5.0181e-006
2.8738e-007
1.4272e-007
8.60652e-008
2.92921e-005
2.85457e-005
7.44626e-006
1.47014e-008
5.77081e-008
1.28788e-006
4.08657e-006
4.42727e-006
7.23973e-007
1.38127e-007
8.40488e-007
1.31025e-007
2.90081e-007
2.28661e-006
1.22814e-006
1.15056e-005
1.38346e-005
7.46545e-007
5.93917e-007
4.3671e-007
2.23042e-006
5.09137e-006
1.33955e-006
8.46384e-007
1.21322e-007
5.12961e-008
3.78102e-006
9.70864e-006
2.18203e-007