/*--------------------------------*- C++ -*----------------------------------*\
| =========                 |                                                 |
| \\      /  F ield         | OpenFOAM: The Open Source CFD Toolbox           |
|  \\    /   O peration     | Version:  5.x                                   |
|   \\  /    A nd           | Web:      www.OpenFOAM.org                      |
|    \\/     M anipulation  |                                                 |
\*---------------------------------------------------------------------------*/
/*   Windows 32 and 64 bit porting by blueCAPE: http://www.bluecape.com.pt   *\
|  Based on Windows porting (2.0.x v4) by Symscape: http://www.symscape.com   |
\*---------------------------------------------------------------------------*/
FoamFile
{
    version     2.0;
    format      ascii;
    class       volScalarField;
    location    "0.00000000";
    object      p;
}
// * * * * * * * * * * * * * * * * * * * * * * * * * * * * * * * * * * * * * //

dimensions      [0 2 -2 0 0 0 0];

internalField   nonuniform List<scalar> 
51000
(
0.00014898
0.000173075
0.000207345
0.000159955
0.000133537
0.000181083
0.000204175
0.000108347
4.15833e-006
-4.88782e-005
-6.34013e-005
-4.8459e-005
-5.47657e-005
-7.57996e-005
-1.02643e-005
1.93224e-005
4.26403e-005
0.000172269
0.000181945
0.000103474
-5.93424e-006
-5.49585e-005
-1.0943e-005
3.89784e-005
9.7905e-005
0.000198624
0.000255159
0.000202096
0.000146726
0.000154459
0.000149134
0.000173018
0.000207964
0.000160305
0.000133385
0.00018101
0.000204548
0.000109038
4.89298e-006
-4.87596e-005
-6.39471e-005
-4.83009e-005
-5.33507e-005
-7.57324e-005
-1.0735e-005
1.89566e-005
4.10847e-005
0.000171014
0.000181845
0.00010286
-5.7002e-006
-5.54353e-005
-1.13638e-005
3.90028e-005
9.76926e-005
0.000198488
0.000255687
0.000203374
0.000147444
0.000154962
0.000148683
0.000173094
0.000208878
0.000160662
0.000133297
0.000180927
0.000205092
0.000109324
4.66172e-006
-4.96077e-005
-6.53787e-005
-4.80518e-005
-5.15059e-005
-7.69999e-005
-1.22528e-005
1.83098e-005
3.85996e-005
0.000169554
0.000182509
0.000101393
-6.38571e-006
-5.87914e-005
-1.29927e-005
3.89498e-005
9.67945e-005
0.000198194
0.000256692
0.000204903
0.000146612
0.000154318
0.000146976
0.000172384
0.000209696
0.000161383
0.000133138
0.000180717
0.000206074
0.000109659
3.24922e-006
-5.19911e-005
-6.84375e-005
-4.82302e-005
-4.97935e-005
-8.02478e-005
-1.54259e-005
1.71201e-005
3.4987e-005
0.000167118
0.00018426
9.9435e-005
-8.29285e-006
-6.72208e-005
-2.04744e-005
3.73381e-005
9.47713e-005
0.000197343
0.000258458
0.000207004
0.000142982
0.00015152
0.000144301
0.00017
0.000208582
0.000162176
0.000132998
0.000179969
0.000206698
0.000110098
1.92425e-006
-5.51002e-005
-7.32431e-005
-4.96347e-005
-4.75776e-005
-8.59326e-005
-2.15585e-005
1.51547e-005
2.90676e-005
0.000162191
0.000185893
9.94831e-005
-1.04196e-005
-7.6004e-005
-3.21102e-005
3.15144e-005
9.05387e-005
0.000195289
0.000260905
0.000211732
0.000136727
0.000145939
0.000141895
0.000167664
0.000204381
0.000163552
0.000133303
0.000179741
0.000205731
0.000110195
4.00265e-007
-5.80593e-005
-7.86244e-005
-5.25205e-005
-4.52057e-005
-9.37871e-005
-3.3073e-005
1.16805e-005
2.29487e-005
0.000154447
0.000181575
9.13751e-005
-1.5862e-005
-8.46612e-005
-4.23819e-005
2.4353e-005
8.32456e-005
0.000191983
0.000264105
0.000221697
0.000129974
0.000136225
0.000137648
0.000168145
0.000198533
0.000162001
0.00013383
0.000184133
0.000203321
0.000110127
-3.0624e-006
-6.28691e-005
-8.3392e-005
-5.74901e-005
-4.41189e-005
-0.00010153
-5.05528e-005
2.35462e-006
1.86174e-005
0.000147902
0.000174178
7.58391e-005
-2.46615e-005
-9.40408e-005
-5.30748e-005
1.87429e-005
7.60846e-005
0.000188902
0.000265932
0.00023095
0.000126703
0.000120882
0.00012742
0.000170434
0.000192277
0.000157959
0.000133685
0.000191528
0.0002028
0.000110541
-7.11297e-006
-6.74124e-005
-8.66025e-005
-6.38693e-005
-4.36695e-005
-0.000103674
-6.80475e-005
-1.72988e-005
1.6566e-005
0.000145685
0.000172184
5.53044e-005
-3.47128e-005
-9.66961e-005
-6.52214e-005
1.44113e-005
7.84432e-005
0.000189619
0.000268823
0.000246047
0.000131109
0.00010218
0.000111803
0.000169369
0.000184833
0.000152045
0.000131958
0.000199541
0.000208687
0.000113534
-9.23335e-006
-6.48575e-005
-8.50349e-005
-6.44613e-005
-4.12955e-005
-9.88276e-005
-7.95029e-005
-4.35064e-005
1.17333e-005
0.000158079
0.000177346
3.95509e-005
-4.52178e-005
-8.89683e-005
-7.43972e-005
1.12178e-005
8.93023e-005
0.000193946
0.000273295
0.000265234
0.000144558
8.70485e-005
9.54246e-005
0.000163861
0.000176788
0.00014438
0.00012795
0.000203471
0.000223108
0.000117823
-9.60491e-006
-5.22387e-005
-7.77521e-005
-5.97929e-005
-3.50691e-005
-9.45061e-005
-9.12273e-005
-6.83322e-005
3.8411e-006
0.000176058
0.000198397
3.75367e-005
-5.23385e-005
-8.3859e-005
-7.51224e-005
2.12388e-006
9.42044e-005
0.000195042
0.000275741
0.00028546
0.000166721
8.27579e-005
8.76965e-005
0.000150769
0.000171431
0.000136353
0.000122433
0.000203475
0.000234762
0.000124515
-1.08681e-005
-4.89095e-005
-7.31956e-005
-5.58925e-005
-3.05376e-005
-8.28132e-005
-0.000113419
-9.1001e-005
-1.66294e-006
0.000181317
0.000223151
4.70907e-005
-5.4955e-005
-8.15291e-005
-7.40208e-005
-1.06325e-005
9.09256e-005
0.000188886
0.000270975
0.000300663
0.00019575
9.27301e-005
8.91753e-005
0.000137198
0.000169984
0.000132244
0.000116072
0.000194997
0.000239488
0.000132068
-1.50857e-005
-5.47308e-005
-7.76927e-005
-5.71717e-005
-3.12671e-005
-6.79337e-005
-0.000102214
-0.000112413
-8.79982e-006
0.000185064
0.000240691
5.80892e-005
-5.4145e-005
-7.2972e-005
-6.75795e-005
-2.22378e-005
8.42965e-005
0.000175719
0.000260792
0.000306096
0.000224712
0.0001194
9.98358e-005
0.000128595
0.000170769
0.000134294
0.000111966
0.000180909
0.000232246
0.000136445
-2.0208e-005
-6.50982e-005
-8.32273e-005
-6.29777e-005
-3.10726e-005
-5.62408e-005
-8.62484e-005
-0.000130046
-2.84046e-005
0.000180258
0.000247197
6.59402e-005
-5.0914e-005
-5.67107e-005
-5.05543e-005
-2.70895e-005
7.82142e-005
0.000172278
0.000251985
0.00030149
0.000235512
0.000143412
0.000114083
0.000124492
0.000167002
0.000140174
0.000114932
0.000165097
0.000215551
0.000134568
-1.93152e-005
-7.53203e-005
-8.51018e-005
-6.66715e-005
-2.65534e-005
-4.86619e-005
-7.65182e-005
-0.00012192
-5.68461e-005
0.000161676
0.00023773
6.84475e-005
-4.72915e-005
-4.04901e-005
-2.67873e-005
-2.45893e-005
7.21457e-005
0.000171527
0.000241317
0.000297463
0.00023015
0.000144441
0.000111755
0.000111673
0.000159511
0.000145932
0.00012395
0.000149884
0.000193851
0.00012832
-1.89354e-005
-8.58901e-005
-8.35252e-005
-6.68938e-005
-2.05934e-005
-3.976e-005
-6.92786e-005
-0.000104947
-7.49565e-005
0.000138247
0.000220127
6.73066e-005
-4.79456e-005
-2.8273e-005
1.01815e-006
-1.20667e-005
6.91997e-005
0.000167214
0.000233642
0.000294154
0.000228844
0.000137623
0.00010552
0.000104167
0.000146177
0.000149221
0.000133349
0.000135303
0.000167852
0.000115814
-2.13501e-005
-9.70504e-005
-8.24135e-005
-6.81655e-005
-1.49337e-005
-2.35004e-005
-5.92777e-005
-7.99941e-005
-6.40061e-005
0.000126242
0.000205024
6.42468e-005
-5.26911e-005
-1.97223e-005
3.61055e-005
1.08557e-005
6.25917e-005
0.000159256
0.000226418
0.000285381
0.000229999
0.000133502
0.000103748
9.63535e-005
0.000131571
0.000145927
0.000136953
0.000132311
0.000145375
0.000101471
-2.81488e-005
-0.000114386
-8.20419e-005
-7.01805e-005
-1.78472e-005
4.43716e-006
-3.80356e-005
-4.65303e-005
-2.35826e-005
0.000126368
0.000190313
5.9017e-005
-5.24815e-005
-2.81099e-006
7.6392e-005
3.936e-005
5.94642e-005
0.000150692
0.000218717
0.00027005
0.000235781
0.000139808
0.000107017
8.94743e-005
0.000118863
0.000143309
0.000137898
0.000131854
0.000132964
9.67852e-005
-2.99827e-005
-0.000134577
-8.10811e-005
-6.11287e-005
-3.38057e-005
1.03495e-005
-6.39515e-006
-7.47144e-006
2.08292e-005
0.000121572
0.000161587
5.07724e-005
-4.02164e-005
2.72016e-005
0.000111258
6.16095e-005
4.85025e-005
0.000141438
0.000214025
0.00026393
0.000247296
0.000153099
0.000109986
8.86271e-005
0.000104865
0.00013809
0.000143917
0.000138353
0.000134962
9.71181e-005
-3.01657e-005
-0.000141699
-7.23164e-005
-3.79078e-005
-2.97753e-005
7.25796e-006
1.82684e-005
2.63445e-005
5.63396e-005
0.000113328
0.000120998
3.64049e-005
-4.21514e-005
3.3596e-005
0.000125589
6.94197e-005
3.55508e-005
0.00013036
0.000208379
0.000260356
0.0002502
0.000161299
0.000104109
9.66763e-005
0.000106641
0.000130429
0.000146527
0.000159019
0.000153423
0.000102406
-2.77262e-005
-0.000123182
-6.11996e-005
-2.99788e-005
-2.28009e-005
3.87604e-006
2.65523e-005
4.32513e-005
7.77275e-005
0.000104347
9.47198e-005
4.36192e-006
-6.24063e-005
-5.7087e-006
9.61684e-005
6.66987e-005
3.41542e-005
0.000128575
0.000199589
0.00024682
0.000243264
0.000159294
9.28153e-005
9.94946e-005
0.000122539
0.000141765
0.000149479
0.000173624
0.00018568
0.000115311
-1.93706e-005
-0.000106006
-5.74118e-005
-2.50431e-005
-2.39416e-005
-6.30877e-006
2.11314e-005
4.34768e-005
8.02797e-005
0.000100204
7.88929e-005
2.34036e-006
-7.25442e-005
-5.71563e-005
3.5221e-005
5.1131e-005
5.2168e-005
0.000138105
0.000192394
0.00022455
0.000220905
0.000147286
9.71342e-005
0.000103163
0.000128471
0.00014752
0.000160565
0.000182841
0.000168322
0.000114037
-1.41582e-005
-9.96652e-005
-6.71877e-005
-2.36786e-005
-2.23431e-005
-1.43748e-005
1.08049e-005
3.5035e-005
7.06158e-005
9.15032e-005
6.80319e-005
-2.43921e-006
-7.1987e-005
-9.00484e-005
-2.79875e-005
2.51419e-005
5.8777e-005
0.000144744
0.00018647
0.000193288
0.000198127
0.000143731
0.000111739
0.00010949
0.000131398
0.000146344
0.000161331
0.000187622
0.000168625
0.000109395
-3.14308e-006
-7.81504e-005
-5.55798e-005
-1.55389e-005
-7.71826e-006
-1.08246e-005
5.06332e-006
2.69179e-005
5.85524e-005
7.39266e-005
5.45823e-005
-3.0198e-006
-6.47294e-005
-9.98608e-005
-7.16041e-005
-7.26373e-006
5.1297e-005
0.00013647
0.000174977
0.00017476
0.0001792
0.00014991
0.000125567
0.000115216
0.000132934
0.000144451
0.000156371
0.000177948
0.000165263
0.000112557
1.98364e-005
-4.73358e-005
-3.12185e-005
4.18294e-006
8.04407e-006
6.33474e-006
1.36695e-005
2.76693e-005
4.7796e-005
5.61732e-005
4.29353e-005
-3.04249e-006
-5.70459e-005
-9.42125e-005
-8.77776e-005
-2.65364e-005
3.99601e-005
0.000117804
0.000155661
0.000159745
0.000167914
0.000155308
0.000137593
0.000117665
0.000132071
0.000143611
0.000153254
0.000165432
0.000154337
0.000114509
3.69795e-005
-1.65715e-005
-2.54332e-006
2.59739e-005
2.66863e-005
2.23325e-005
2.40948e-005
3.44604e-005
4.45955e-005
4.72535e-005
3.20402e-005
-7.14323e-006
-5.66219e-005
-8.29811e-005
-7.27476e-005
-1.75878e-005
4.58408e-005
0.000107466
0.000140056
0.000149364
0.000159504
0.000157835
0.000139354
0.000125689
0.000129953
0.000140317
0.000149565
0.000154245
0.000143979
0.000115997
4.97786e-005
6.0209e-006
1.76472e-005
4.07015e-005
4.00239e-005
3.37133e-005
3.4709e-005
3.95599e-005
4.16679e-005
3.9532e-005
2.68424e-005
-8.02566e-006
-5.8554e-005
-7.68274e-005
-4.74177e-005
1.2967e-005
7.36926e-005
0.000113657
0.000131805
0.000140284
0.000151327
0.000153342
0.000133156
0.000126812
0.000128632
0.000137223
0.000146406
0.000143676
0.00013159
0.00011018
5.74698e-005
2.17068e-005
2.8322e-005
4.51019e-005
4.38107e-005
3.82925e-005
4.18058e-005
4.19943e-005
3.67421e-005
2.71826e-005
2.01858e-005
-6.36597e-006
-4.89532e-005
-6.55803e-005
-2.89223e-005
3.35612e-005
8.72599e-005
0.000116522
0.000124437
0.000131684
0.000143909
0.00014538
0.000129322
0.000124568
0.000127497
0.000132454
0.000135295
0.000130032
0.000117619
0.000102629
6.18746e-005
3.02848e-005
2.62019e-005
3.58253e-005
4.06557e-005
4.042e-005
4.49586e-005
4.68238e-005
3.81843e-005
1.92816e-005
1.49533e-005
-1.51806e-006
-3.32434e-005
-4.04748e-005
-7.2829e-006
4.75356e-005
8.9309e-005
0.000108006
0.000111334
0.000116023
0.00013045
0.00013816
0.000127309
0.000118075
0.000120955
0.00012839
0.000129449
0.00011752
9.63223e-005
9.13053e-005
6.65277e-005
4.12427e-005
2.87302e-005
3.03852e-005
4.0998e-005
5.01134e-005
5.48398e-005
5.61654e-005
4.32264e-005
1.41233e-005
6.24093e-006
1.20943e-006
-1.44092e-005
-1.939e-005
1.05435e-005
6.25703e-005
9.96753e-005
0.000108601
0.000104024
0.000101683
0.000114919
0.000130845
0.000122121
0.000110796
0.000108599
0.000113584
0.000121121
0.000114956
9.78519e-005
8.61619e-005
7.1882e-005
5.10292e-005
4.10025e-005
4.10922e-005
5.22032e-005
6.6158e-005
6.28648e-005
5.37768e-005
3.54503e-005
8.76619e-006
2.57665e-006
4.97068e-006
-2.12771e-006
-3.3613e-006
2.45054e-005
7.45701e-005
0.000111629
0.000118454
0.000108667
9.98479e-005
0.00010612
0.000122055
0.00011249
0.000104355
9.53407e-005
9.8198e-005
0.000116607
0.000119562
0.000102669
9.41974e-005
8.42978e-005
6.2606e-005
4.86096e-005
4.08089e-005
4.41115e-005
6.23787e-005
6.57298e-005
5.58288e-005
3.49704e-005
1.10347e-005
6.75953e-006
9.44551e-006
7.96578e-006
1.28159e-005
3.80119e-005
8.06145e-005
0.000117677
0.000123586
0.000116527
0.000100435
9.89885e-005
0.00010955
0.000103868
0.000100867
9.02201e-005
9.24459e-005
0.000113041
0.000116285
9.85306e-005
9.44259e-005
8.99181e-005
6.56786e-005
4.4565e-005
3.56432e-005
3.86038e-005
5.19395e-005
5.78107e-005
5.53678e-005
5.04744e-005
3.66612e-005
2.65734e-005
2.06803e-005
1.42607e-005
2.4225e-005
5.05995e-005
8.29991e-005
0.000112199
0.000116919
0.000108752
9.99302e-005
9.52222e-005
9.96212e-005
9.89911e-005
0.000102032
9.7023e-005
9.8211e-005
0.000110721
0.00010832
8.76905e-005
8.19668e-005
8.06147e-005
6.09078e-005
3.39252e-005
2.30654e-005
3.06347e-005
4.89897e-005
5.71449e-005
5.50167e-005
5.08591e-005
4.18673e-005
3.64507e-005
3.24392e-005
2.37692e-005
3.06533e-005
5.29109e-005
7.62059e-005
9.66313e-005
0.000100338
9.74864e-005
9.63774e-005
9.63467e-005
9.69501e-005
9.93333e-005
0.000103648
0.000104822
0.000108277
0.000113783
0.000109357
8.48838e-005
7.67037e-005
6.60708e-005
4.85304e-005
2.69964e-005
1.45643e-005
2.51178e-005
4.54541e-005
5.37817e-005
5.22376e-005
4.86596e-005
4.22369e-005
4.10799e-005
3.84658e-005
2.9183e-005
3.21287e-005
4.88531e-005
7.27413e-005
9.03164e-005
9.24491e-005
8.91871e-005
9.51866e-005
0.000101946
0.00010089
0.000147769
0.000144727
0.000231032
0.000210538
0.000121212
0.000175375
0.000210829
0.000109365
2.84557e-005
-1.99783e-005
-6.96492e-005
-9.92077e-005
-0.00010088
-5.06712e-005
0.000118516
0.000174054
7.75532e-005
3.32779e-005
3.36656e-005
4.02896e-007
-4.50058e-005
2.6895e-005
0.000125969
0.000201037
0.000239099
0.000225646
0.000171227
0.000108913
0.000131963
0.000182894
0.000147829
0.000143461
0.000230634
0.000211412
0.00012126
0.000174999
0.00021284
0.000110606
2.96621e-005
-1.89677e-005
-6.92714e-005
-9.9415e-005
-0.000101752
-5.23107e-005
0.000117709
0.000175841
7.93758e-005
3.4886e-005
3.38953e-005
-2.01387e-006
-5.10213e-005
2.37626e-005
0.000125545
0.000202091
0.000240752
0.000226658
0.000171313
0.000107892
0.000130812
0.000182832
0.000147771
0.000141547
0.00023063
0.000213373
0.000121339
0.000174927
0.000216647
0.000109598
2.80127e-005
-1.99827e-005
-7.07527e-005
-0.000100859
-0.000103519
-5.54772e-005
0.000116769
0.000179715
8.1225e-005
3.34234e-005
2.87954e-005
-3.92997e-006
-6.12976e-005
6.18233e-006
0.000117504
0.000202745
0.000244453
0.000227625
0.000170121
0.000104894
0.000128521
0.000182591
0.000147683
0.000139392
0.000230969
0.000215808
0.000121169
0.000176314
0.000224045
0.00010664
2.26447e-005
-2.41663e-005
-7.53812e-005
-0.000104074
-0.000105677
-6.03817e-005
0.000114868
0.000185892
8.39084e-005
2.97604e-005
1.71062e-005
-9.6647e-006
-7.17598e-005
-2.39495e-005
9.14426e-005
0.000194354
0.000247718
0.000229154
0.000168158
9.93396e-005
0.000124111
0.000181151
0.000146381
0.000134953
0.000229797
0.000217171
0.000120619
0.000178735
0.000238583
0.000104931
1.45494e-005
-3.02218e-005
-8.29147e-005
-0.000109223
-0.000107086
-6.66194e-005
0.000109963
0.00019565
9.00708e-005
3.05152e-005
3.15801e-006
-1.78875e-005
-7.46681e-005
-5.19798e-005
5.70847e-005
0.000177086
0.000247656
0.00023075
0.000171319
9.04906e-005
0.000116616
0.00017801
0.000144381
0.000125776
0.000223321
0.000215543
0.000120812
0.000181465
0.000260298
0.000109813
4.86729e-006
-3.53324e-005
-8.97446e-005
-0.000115652
-0.000107419
-7.25755e-005
0.000101197
0.000204193
9.95218e-005
3.87084e-005
-2.83369e-006
-2.24013e-005
-6.77168e-005
-6.75148e-005
2.76867e-005
0.000156577
0.000246173
0.000231446
0.000175452
8.20853e-005
0.00010545
0.000172454
0.00014248
0.00011169
0.000210527
0.000210319
0.000122662
0.000183368
0.000285625
0.000125177
-5.04907e-006
-3.99139e-005
-9.35405e-005
-0.000122126
-0.000106381
-7.51919e-005
9.0631e-005
0.000209534
0.000111863
5.13369e-005
1.57541e-006
-2.23699e-005
-5.58881e-005
-6.45762e-005
2.07691e-006
0.000132637
0.00024221
0.000230992
0.000179495
8.51151e-005
9.17603e-005
0.000162876
0.000141816
9.57755e-005
0.000193245
0.000203113
0.000125369
0.000185868
0.000309371
0.000152522
-1.39909e-005
-4.61778e-005
-9.31552e-005
-0.000125572
-0.000105466
-7.29613e-005
7.91604e-005
0.000211263
0.000125605
6.3187e-005
1.38093e-005
-1.98587e-005
-4.6942e-005
-5.40214e-005
-1.25506e-005
0.000101035
0.000226062
0.000227231
0.000184337
9.28832e-005
8.01484e-005
0.000149272
0.00014085
9.24515e-005
0.000175022
0.00019448
0.00012705
0.000186825
0.000325575
0.000181015
-1.7672e-005
-5.26826e-005
-8.84342e-005
-0.00012573
-0.000105014
-7.42937e-005
6.1069e-005
0.000212998
0.000140379
7.43302e-005
3.18408e-005
-1.48821e-005
-4.16022e-005
-4.09864e-005
-1.5628e-005
7.41933e-005
0.000198863
0.000217435
0.000189661
0.000106401
7.69129e-005
0.000133121
0.000137014
9.99399e-005
0.000160954
0.000184881
0.000127048
0.000186039
0.000328419
0.000204759
-1.09494e-005
-5.33628e-005
-8.10213e-005
-0.000122405
-0.000105176
-7.69783e-005
3.25602e-005
0.000206587
0.000157153
8.61192e-005
5.53694e-005
-4.80358e-006
-3.86235e-005
-3.03755e-005
-9.39493e-006
5.38043e-005
0.00016907
0.000201533
0.00019428
0.000128007
8.73306e-005
0.000117567
0.000132329
0.000116154
0.000156748
0.000175242
0.000126678
0.00018138
0.000324389
0.000223702
5.42155e-006
-5.10292e-005
-7.69172e-005
-0.000117611
-0.000105541
-7.97536e-005
3.33297e-006
0.000188029
0.000171672
0.000108245
8.31724e-005
1.10158e-005
-3.70893e-005
-2.29526e-005
8.30878e-006
4.27101e-005
0.000138047
0.000183965
0.000197104
0.00015105
0.00010828
0.000121853
0.000128962
0.000127952
0.000160173
0.000168938
0.000123962
0.000176648
0.000308323
0.000235106
2.57487e-005
-4.97561e-005
-7.97958e-005
-0.000115612
-0.000106102
-7.83653e-005
-1.88802e-005
0.000165293
0.000184052
0.00012709
0.00010461
2.59055e-005
-3.78947e-005
-1.45165e-005
3.0242e-005
3.99777e-005
0.000115592
0.000175297
0.000201915
0.000166981
0.000123437
0.00012465
0.000130985
0.000131939
0.000166365
0.000167661
0.000118733
0.000166938
0.000284553
0.000232453
4.36866e-005
-4.79017e-005
-8.47992e-005
-0.000116604
-0.000107512
-8.26148e-005
-3.10836e-005
0.00014116
0.000189625
0.00013947
0.000112329
2.84824e-005
-4.44596e-005
-6.38267e-006
5.11724e-005
4.19404e-005
9.95534e-005
0.000168245
0.000209823
0.000181833
0.000129177
0.000121125
0.000127494
0.000132888
0.000168436
0.000168812
0.000114809
0.000150366
0.00025337
0.000217577
5.52657e-005
-4.54373e-005
-8.70018e-005
-0.000114757
-0.000105899
-9.04151e-005
-4.26595e-005
0.00010323
0.000187067
0.000141217
0.000112819
1.9598e-005
-5.28363e-005
1.43958e-006
6.96122e-005
4.32323e-005
8.50096e-005
0.000159672
0.000216283
0.000196215
0.000135428
0.000111463
0.000120824
0.000130881
0.000167791
0.00016924
0.000115632
0.000133665
0.000220432
0.00019541
5.98594e-005
-4.50048e-005
-8.8155e-005
-0.000110334
-9.93755e-005
-8.72057e-005
-4.54168e-005
7.52782e-005
0.000179515
0.000135194
0.00010199
1.51772e-005
-5.28596e-005
1.17015e-005
8.72452e-005
4.59915e-005
7.04803e-005
0.000148342
0.000214947
0.000203557
0.00014482
0.000101782
0.000111991
0.000125292
0.000163901
0.0001666
0.000120313
0.000122064
0.000189188
0.000168211
5.50528e-005
-4.97183e-005
-8.87548e-005
-0.000100926
-7.52319e-005
-7.21634e-005
-3.41995e-005
6.14854e-005
0.00016433
0.000126088
9.46602e-005
2.28679e-005
-4.25359e-005
2.14719e-005
0.000101413
5.48314e-005
5.77909e-005
0.000136816
0.000209353
0.000205948
0.00015257
9.59839e-005
0.000101092
0.000116494
0.000156619
0.000164746
0.000127268
0.000120121
0.00016002
0.000136795
3.93116e-005
-6.30464e-005
-9.16135e-005
-9.56358e-005
-7.3951e-005
-5.98097e-005
-2.46829e-005
5.55369e-005
0.00014102
0.000118652
8.2295e-005
3.0302e-005
-3.98937e-005
1.90389e-005
0.000106517
6.84414e-005
4.98988e-005
0.000129888
0.000204211
0.000220015
0.000161021
9.52669e-005
8.58388e-005
0.000104221
0.000148968
0.000164689
0.000133825
0.000123777
0.000147675
0.000118716
2.04791e-005
-8.74822e-005
-0.000100343
-8.93571e-005
-7.02954e-005
-4.60347e-005
-1.67035e-005
4.61267e-005
0.000118936
0.000115211
6.90121e-005
2.24603e-005
-5.28653e-005
-4.66458e-006
9.35684e-005
6.99911e-005
4.56412e-005
0.000127786
0.000203136
0.000230638
0.000172635
9.82892e-005
6.66222e-005
8.64375e-005
0.00013832
0.000165239
0.000142744
0.000132245
0.000150236
0.000120316
1.02474e-005
-0.000103135
-0.000102116
-7.63417e-005
-6.21378e-005
-3.27202e-005
7.81997e-007
4.29635e-005
9.52644e-005
0.000103339
6.72295e-005
1.98006e-005
-5.25446e-005
-2.64144e-005
6.98399e-005
6.5772e-005
4.60792e-005
0.000127291
0.000203182
0.000238517
0.000193857
0.000101679
5.06502e-005
7.2986e-005
0.000125237
0.000159055
0.00015135
0.000148261
0.00016744
0.000129569
1.32659e-005
-9.05167e-005
-8.34925e-005
-6.28144e-005
-5.56367e-005
-2.80961e-005
1.35613e-005
4.82475e-005
7.98438e-005
8.67469e-005
6.66263e-005
1.86768e-005
-4.14802e-005
-2.9447e-005
5.35499e-005
6.66547e-005
5.03486e-005
0.000129274
0.000203674
0.000239969
0.00020331
9.88499e-005
4.31222e-005
6.7905e-005
0.000118343
0.000150606
0.000153477
0.000171382
0.000179679
0.000139707
2.1065e-005
-7.72187e-005
-7.28399e-005
-5.49845e-005
-5.30351e-005
-3.09796e-005
1.38636e-005
4.89565e-005
7.21074e-005
7.70167e-005
6.19877e-005
1.46104e-005
-4.2146e-005
-3.59645e-005
3.3805e-005
6.22951e-005
5.98368e-005
0.000133792
0.000201629
0.000232725
0.000202675
9.92552e-005
5.08915e-005
6.95403e-005
0.000112696
0.000145085
0.000156215
0.000171875
0.0001701
0.000135569
2.47931e-005
-6.72754e-005
-7.32443e-005
-5.20669e-005
-5.56899e-005
-3.58596e-005
8.37649e-006
4.47055e-005
6.87665e-005
6.99019e-005
5.59792e-005
9.82778e-006
-4.96993e-005
-5.24176e-005
4.13019e-006
4.43334e-005
6.21047e-005
0.000133968
0.000193957
0.000215838
0.000194582
0.000112535
7.44709e-005
7.67088e-005
0.000108831
0.000138804
0.000159031
0.000177077
0.000165159
0.000122291
2.56987e-005
-5.17472e-005
-5.42281e-005
-3.98588e-005
-5.27205e-005
-3.48137e-005
3.56872e-006
4.15106e-005
6.45937e-005
6.13391e-005
4.51367e-005
1.28033e-007
-5.46291e-005
-6.72244e-005
-2.66423e-005
1.93705e-005
5.4947e-005
0.000123363
0.000176311
0.000193862
0.000181724
0.000128531
9.92349e-005
8.98154e-005
0.000112452
0.000131339
0.000153232
0.00017642
0.000162676
0.000114622
3.57986e-005
-2.53516e-005
-2.87519e-005
-1.51829e-005
-2.56133e-005
-1.9951e-005
1.12365e-005
4.45839e-005
6.27751e-005
5.44657e-005
3.51593e-005
-8.92068e-007
-4.86845e-005
-6.64306e-005
-3.92211e-005
4.4947e-006
5.1847e-005
0.000112123
0.000154672
0.000170937
0.000168262
0.000139328
0.000116779
0.000104103
0.000126102
0.000130906
0.000145334
0.0001621
0.000153868
0.000113849
4.94133e-005
7.02812e-008
-3.32703e-006
9.66179e-006
2.08874e-006
-3.34595e-007
2.31352e-005
5.25402e-005
6.45338e-005
5.25266e-005
2.97443e-005
1.70966e-006
-4.00143e-005
-5.57049e-005
-3.35355e-005
7.57415e-006
6.02381e-005
0.000115329
0.000138841
0.000153905
0.000159557
0.000145385
0.000127372
0.000116914
0.000125144
0.000131922
0.000141657
0.00015055
0.000145744
0.000116875
5.81421e-005
1.65104e-005
1.57939e-005
2.65284e-005
2.04484e-005
1.63567e-005
3.72012e-005
6.07137e-005
6.34899e-005
4.90041e-005
2.77855e-005
1.00617e-006
-3.44409e-005
-4.69831e-005
-2.48935e-005
1.79086e-005
7.31259e-005
0.000117313
0.000131269
0.000140771
0.000151802
0.000146822
0.000128423
0.00012527
0.000130382
0.000135518
0.000140716
0.00014258
0.000134302
0.000116068
6.35883e-005
2.96314e-005
3.02984e-005
3.77156e-005
3.19065e-005
2.71595e-005
4.43897e-005
6.71534e-005
5.90872e-005
3.85186e-005
2.2099e-005
2.27339e-006
-2.53218e-005
-3.26178e-005
-9.56052e-006
3.2852e-005
7.88605e-005
0.000113269
0.000121423
0.000128806
0.000142496
0.000141915
0.000126786
0.000124393
0.000133026
0.000136359
0.000134302
0.000130594
0.000125302
0.000109109
6.95535e-005
4.03558e-005
3.82089e-005
4.09822e-005
3.59948e-005
3.2484e-005
4.568e-005
6.74514e-005
5.72406e-005
2.97032e-005
1.62884e-005
2.65221e-006
-1.42837e-005
-1.66119e-005
9.33783e-006
5.3202e-005
8.78717e-005
0.000107305
0.000110801
0.000114861
0.000129295
0.000134674
0.000124526
0.000117966
0.000126204
0.000133239
0.000131369
0.000121815
0.000116998
0.000101221
7.38526e-005
5.05831e-005
4.52815e-005
4.57239e-005
4.21561e-005
4.41029e-005
5.45756e-005
7.19629e-005
5.90261e-005
2.70347e-005
1.27236e-005
6.16377e-006
-7.00408e-006
-8.91125e-006
1.86679e-005
6.46147e-005
0.000100505
0.000114264
0.000112929
0.000108271
0.00011756
0.000128667
0.00012077
0.000109861
0.00011321
0.000120462
0.000128536
0.000122801
0.000107473
0.000100326
8.01597e-005
5.83622e-005
5.27207e-005
5.97721e-005
5.49837e-005
5.98897e-005
6.24439e-005
6.55365e-005
5.03449e-005
2.14751e-005
1.20252e-005
1.26662e-005
5.00977e-006
5.36937e-006
2.99184e-005
7.15056e-005
0.000105374
0.000120421
0.00011855
0.000109856
0.000111678
0.000121816
0.00011483
0.000108487
0.000103264
0.000108231
0.000125705
0.000126207
0.000106062
9.73542e-005
8.82297e-005
6.59796e-005
5.39624e-005
5.21461e-005
5.31587e-005
6.21485e-005
6.49212e-005
6.01977e-005
4.48794e-005
2.17419e-005
1.55208e-005
2.0881e-005
1.8775e-005
2.37681e-005
4.58153e-005
7.94418e-005
0.00010799
0.000118798
0.000118918
0.000111169
0.000106143
0.000111937
0.000106588
0.000104909
9.83474e-005
0.000100673
0.000118707
0.000118888
9.85826e-005
9.45132e-005
9.45472e-005
7.28945e-005
4.94109e-005
3.95861e-005
4.31923e-005
5.29325e-005
5.55161e-005
5.28963e-005
4.71577e-005
3.43961e-005
2.808e-005
2.60482e-005
2.25217e-005
3.03357e-005
5.39654e-005
8.53117e-005
0.000108101
0.000112596
0.000113003
0.000114207
0.000104264
0.000104812
0.000104266
0.00010753
0.000103077
0.000102677
0.000113248
0.000109393
9.04224e-005
8.40227e-005
8.33721e-005
6.40339e-005
3.73859e-005
2.35546e-005
3.07231e-005
4.92835e-005
5.64995e-005
5.23114e-005
4.43461e-005
3.51473e-005
3.38661e-005
3.25215e-005
2.8553e-005
3.56734e-005
5.49927e-005
7.94657e-005
9.79217e-005
0.00010061
0.000103118
0.000107003
0.000106141
0.000102953
0.000111038
0.000113284
0.000110718
0.000110963
0.000115142
0.000108506
8.11842e-005
7.69467e-005
6.58676e-005
4.83366e-005
2.682e-005
1.44168e-005
2.38517e-005
4.42679e-005
5.24e-005
4.99986e-005
4.45306e-005
3.84891e-005
3.92774e-005
3.8242e-005
3.41374e-005
3.92572e-005
5.29181e-005
7.52517e-005
9.27026e-005
9.43278e-005
9.28346e-005
0.000100952
0.000109498
0.000110789
0.000208826
0.000184046
0.000186273
0.000134641
9.429e-005
0.000113368
0.00016633
0.000165671
0.000110276
6.2913e-005
1.07819e-005
-8.62841e-005
-0.00014303
-2.11846e-005
0.000187722
0.000203613
8.40265e-005
7.04669e-005
0.000132123
9.78085e-005
-5.22262e-005
-0.000127407
-0.000114547
-9.39433e-006
0.000126311
0.000190578
0.000200047
0.000202845
0.000237319
0.000251004
0.000209045
0.000184238
0.000186267
0.000134152
9.37218e-005
0.000113259
0.000165229
0.000165807
0.000111714
6.35707e-005
1.11877e-005
-8.63578e-005
-0.000144407
-2.394e-005
0.000187449
0.000204887
8.40297e-005
6.90799e-005
0.000132231
9.8413e-005
-5.28047e-005
-0.000128453
-0.000116348
-1.04742e-005
0.000125899
0.000189792
0.000198962
0.000201606
0.000236686
0.000251323
0.000210387
0.00018536
0.000186839
0.000133879
9.27723e-005
0.000112622
0.000163245
0.000166008
0.000112952
6.39083e-005
1.12907e-005
-8.7089e-005
-0.000148307
-2.78896e-005
0.000187878
0.000207463
8.35239e-005
6.66339e-005
0.000131737
9.89157e-005
-5.11173e-005
-0.000131788
-0.000121294
-1.27814e-005
0.000125953
0.000189544
0.000196909
0.000198934
0.000235748
0.000252485
0.000212571
0.000187476
0.000188574
0.00013396
9.20908e-005
0.000110652
0.000158738
0.000165371
0.000113249
6.31926e-005
1.05239e-005
-8.824e-005
-0.000150125
-3.18987e-005
0.000188913
0.000211374
8.18294e-005
6.22027e-005
0.00012974
9.75706e-005
-4.66733e-005
-0.00013951
-0.000129369
-1.79359e-005
0.000126086
0.000190032
0.000195788
0.000193184
0.000232686
0.000253825
0.000214974
0.000190979
0.000192298
0.00013381
9.10692e-005
0.000108304
0.000149732
0.000161723
0.00011238
6.11901e-005
8.33682e-006
-8.98285e-005
-0.000149245
-3.50298e-005
0.000189979
0.000215243
8.11317e-005
5.27634e-005
0.000125323
9.23207e-005
-3.6551e-005
-0.00015069
-0.00015251
-3.24605e-005
0.000123763
0.000190643
0.000194549
0.000184835
0.000224315
0.000253337
0.00021622
0.00019413
0.000197511
0.000133986
8.78943e-005
0.000104979
0.000136304
0.000155452
0.000110818
5.82882e-005
5.40766e-006
-9.34827e-005
-0.000145834
-3.53441e-005
0.000190921
0.000217875
8.29938e-005
4.04571e-005
0.000116055
8.2526e-005
-2.45482e-005
-0.000142697
-0.000182107
-6.03834e-005
0.000114799
0.000189256
0.000196173
0.000176243
0.00021013
0.000248992
0.000216152
0.000194114
0.000199767
0.000136531
8.18152e-005
0.000102442
0.000120671
0.000144419
0.000108008
5.33626e-005
2.79909e-006
-9.8786e-005
-0.00014122
-3.63217e-005
0.000188807
0.000219025
8.66324e-005
3.12002e-005
0.000101208
7.0618e-005
-1.42961e-005
-0.000116737
-0.000191089
-9.43515e-005
9.86141e-005
0.000184574
0.000198254
0.000174466
0.000192975
0.000238672
0.000215278
0.00019059
0.000200887
0.000141912
7.50094e-005
9.99487e-005
0.000109206
0.000127327
9.96649e-005
4.22232e-005
-7.88191e-007
-0.000100653
-0.000134903
-3.91956e-005
0.00016918
0.000219511
9.46755e-005
3.52457e-005
8.68364e-005
6.62796e-005
-8.78072e-006
-8.5845e-005
-0.000184968
-0.000115179
7.89494e-005
0.000177849
0.000198606
0.000178096
0.000176239
0.000221708
0.000211817
0.00018417
0.000200616
0.000150893
7.32717e-005
9.65576e-005
0.000115669
0.000113821