/*--------------------------------*- C++ -*----------------------------------*\
| =========                 |                                                 |
| \\      /  F ield         | OpenFOAM: The Open Source CFD Toolbox           |
|  \\    /   O peration     | Version:  5.x                                   |
|   \\  /    A nd           | Web:      www.OpenFOAM.org                      |
|    \\/     M anipulation  |                                                 |
\*---------------------------------------------------------------------------*/
/*   Windows 32 and 64 bit porting by blueCAPE: http://www.bluecape.com.pt   *\
|  Based on Windows porting (2.0.x v4) by Symscape: http://www.symscape.com   |
\*---------------------------------------------------------------------------*/
FoamFile
{
    version     2.0;
    format      ascii;
    class       volVectorField;
    location    "0.00000000";
    object      U;
}
// * * * * * * * * * * * * * * * * * * * * * * * * * * * * * * * * * * * * * //

dimensions      [0 1 -1 0 0 0 0];

internalField   nonuniform List<vector> 
51000
(
(0.00691625 3.01211e-005 0.000386043)
(0.0067541 -8.74869e-006 -0.00014463)
(0.00656702 -9.32876e-006 -0.000840133)
(0.00622904 2.2106e-005 -0.000553293)
(0.00618942 -6.21367e-007 -1.40166e-006)
(0.00751723 -2.26493e-005 -0.000155001)
(0.00996219 -3.58518e-006 0.000198539)
(0.0110628 4.63398e-005 0.00110168)
(0.00965645 6.29158e-005 0.00154415)
(0.00770429 4.9648e-005 0.00157677)
(0.0065474 4.63738e-006 0.00170737)
(0.00607099 -2.61112e-005 0.00175)
(0.00613817 4.28949e-005 0.00111274)
(0.00675847 8.96431e-005 -0.00131862)
(0.00806136 6.32301e-005 -0.00278642)
(0.00930774 4.5983e-005 -0.000835936)
(0.00997939 -2.60752e-005 0.00197623)
(0.0117391 -0.000121111 0.00358199)
(0.0139313 -7.70201e-005 0.00446869)
(0.0144943 -2.55293e-005 0.00286988)
(0.0125118 4.1799e-007 -0.000771606)
(0.00895835 1.39216e-005 -0.00335423)
(0.00659869 -1.18882e-005 -0.00382451)
(0.00609829 -1.02406e-006 -0.00272346)
(0.00631589 2.58654e-005 -0.000549378)
(0.00698243 1.1034e-005 0.00116941)
(0.00758988 1.00484e-005 0.00132919)
(0.00748719 3.19135e-005 0.000438814)
(0.00715988 5.07116e-005 -0.000368712)
(0.00704513 4.5395e-005 -0.000136225)
(0.021449 0.000230354 0.00039421)
(0.0210141 1.45959e-005 -0.000609015)
(0.0196165 1.1061e-005 -0.00166688)
(0.0182881 0.000130573 -0.00107136)
(0.0181856 8.56569e-006 -0.000390857)
(0.0206519 -9.02203e-005 -0.000926895)
(0.0262833 5.15189e-005 -0.000290937)
(0.0309142 0.000341328 0.00207527)
(0.0295142 0.00045037 0.00382532)
(0.0249333 0.000351842 0.00418695)
(0.0209344 9.78632e-005 0.00423926)
(0.018126 -1.64066e-005 0.00373344)
(0.0177275 0.000248256 0.00137068)
(0.0200636 0.000368207 -0.00369692)
(0.0242177 0.000239204 -0.0056523)
(0.0286704 0.00015058 -0.000877427)
(0.0310352 -0.000137397 0.00492043)
(0.0337393 -0.000560487 0.00812904)
(0.0378085 -0.000445285 0.0102859)
(0.0408024 -0.00020523 0.00780969)
(0.0394455 -5.5893e-005 -9.13225e-005)
(0.0312986 -3.63994e-005 -0.00632644)
(0.022443 -0.000175213 -0.00736534)
(0.0194209 -8.06372e-005 -0.00452018)
(0.0197952 0.000106795 -0.000302341)
(0.021132 0.000125315 0.00191892)
(0.0223697 0.000202942 0.00107946)
(0.0223806 0.000424797 -0.00100402)
(0.0217832 0.000490715 -0.00185221)
(0.021463 0.000377378 -0.000660891)
(0.0368611 0.000662447 -0.000525314)
(0.0361606 0.000258235 -0.0010137)
(0.033212 0.00017938 -0.00190696)
(0.0304793 0.000356292 -0.00127572)
(0.0292838 0.000139434 -0.000770743)
(0.0303476 -5.24005e-005 -0.001919)
(0.0358997 0.000147006 -0.00191529)
(0.0451443 0.000681558 0.000497331)
(0.048833 0.000965515 0.00353688)
(0.045078 0.000856204 0.00514222)
(0.0380212 0.000392123 0.00591836)
(0.0306435 0.000146258 0.0053127)
(0.0282246 0.000549186 0.00168314)
(0.0317244 0.000687328 -0.00528123)
(0.038613 0.000376637 -0.00846544)
(0.0472966 0.000231346 -0.00234457)
(0.0519649 -0.000102964 0.00574617)
(0.0524597 -0.000780226 0.00943566)
(0.0540022 -0.000746279 0.012496)
(0.0584967 -0.000498111 0.0124823)
(0.064166 -8.06509e-007 0.00421707)
(0.059059 0.000342478 -0.00549268)
(0.0431798 3.12033e-006 -0.00870538)
(0.0335325 -0.000137365 -0.00569857)
(0.0327461 0.000188707 -0.000488955)
(0.0344592 0.00027784 0.00195309)
(0.0366793 0.000422296 0.00028917)
(0.0376264 0.00104076 -0.00292904)
(0.0370364 0.00130801 -0.00407123)
(0.0365311 0.00100605 -0.00228114)
(0.0525949 0.0012935 -0.0024806)
(0.0520597 0.000846815 -0.00215937)
(0.0476436 0.000613599 -0.00216384)
(0.0430706 0.000705344 -0.00115138)
(0.0400067 0.000433371 -0.000698204)
(0.0383907 0.000215699 -0.00253634)
(0.0410798 0.000413299 -0.00328873)
(0.0497756 0.000982405 -0.00181427)
(0.0606461 0.00131486 -6.74584e-005)
(0.0638798 0.00133988 0.00269942)
(0.0574811 0.000892003 0.00571742)
(0.0447932 0.000505273 0.00675535)
(0.0380477 0.00090785 0.00264648)
(0.0412261 0.000980827 -0.0063938)
(0.0496668 0.000369296 -0.0120812)
(0.062366 0.000243146 -0.00583422)
(0.0702206 0.000147275 0.0047137)
(0.0680923 -0.000353555 0.00892111)
(0.064835 -0.000158653 0.0115247)
(0.0658652 -0.000420063 0.0143287)
(0.0757903 -0.000209244 0.00943903)
(0.0799985 0.000782465 -0.00208554)
(0.0653644 0.000707283 -0.00855779)
(0.0484622 5.89093e-005 -0.00666839)
(0.044356 0.000248673 -0.00087403)
(0.0460662 0.000374857 0.0022524)
(0.0488626 0.00042518 0.000323147)
(0.0513558 0.00156701 -0.00410773)
(0.051566 0.00234874 -0.00635747)
(0.0514169 0.00186691 -0.00461001)
(0.0661003 0.00178541 -0.00424412)
(0.067462 0.00155238 -0.00412353)
(0.0628469 0.00139319 -0.00327837)
(0.0564258 0.00119152 -0.00115216)
(0.051044 0.000797439 -0.000190401)
(0.0465346 0.000694434 -0.00249353)
(0.0454659 0.000920625 -0.0040466)
(0.0510707 0.00138714 -0.00335075)
(0.0630113 0.00142967 -0.0038262)
(0.0758077 0.00147711 -0.00359032)
(0.0763227 0.00132177 0.00159814)
(0.0613423 0.00100276 0.00693463)
(0.0486298 0.00131578 0.00430458)
(0.0501619 0.00122295 -0.00688275)
(0.0582866 0.0001444 -0.0163816)
(0.0732126 8.49076e-005 -0.0113529)
(0.0837432 0.00040112 0.00178096)
(0.0797417 0.000567787 0.00754902)
(0.0735698 0.00134895 0.0097426)
(0.0708619 0.000734962 0.013985)
(0.0769908 -0.000273572 0.0121461)
(0.0874504 0.000755147 0.00160392)
(0.0803372 0.00141157 -0.00754671)
(0.0624254 0.000512379 -0.00738575)
(0.0544833 0.000281592 -0.00115001)
(0.0557651 0.000413839 0.00307315)
(0.0580668 0.000138597 0.00132307)
(0.0612031 0.00164608 -0.00407069)
(0.0627493 0.00338897 -0.00783373)
(0.0633094 0.0028252 -0.00635066)
(0.0744326 0.00188171 -0.00438)
(0.0786577 0.00173735 -0.00544241)
(0.0772253 0.00225793 -0.00533859)
(0.0708689 0.00187147 -0.00213888)
(0.0628882 0.00110203 4.63605e-005)
(0.0554311 0.00115022 -0.00204059)
(0.0510045 0.00174392 -0.00432138)
(0.0526624 0.00206537 -0.00378983)
(0.0621989 0.0013085 -0.00545792)
(0.0801084 0.000750614 -0.00992121)
(0.0908933 0.00121437 -0.00664211)
(0.0791347 0.00139669 0.0038414)
(0.0616511 0.00178554 0.00613895)
(0.0620042 0.00145084 -0.00566243)
(0.0688528 -0.000426893 -0.0200171)
(0.0826052 -0.000453793 -0.018352)
(0.0930455 0.000409698 -0.00330786)
(0.0874501 0.00152722 0.00522605)
(0.080503 0.00317645 0.00812333)
(0.0761207 0.00273777 0.0126979)
(0.0776854 0.000364192 0.0130045)
(0.0878133 0.000464154 0.00419626)
(0.088159 0.00178194 -0.00625996)
(0.0740939 0.000959642 -0.00808964)
(0.0636108 0.000111009 -0.0015947)
(0.0641236 0.000305031 0.00431062)
(0.0654678 -0.000364594 0.00321564)
(0.0673986 0.00125682 -0.0031526)
(0.070051 0.0042594 -0.0084427)
(0.0711466 0.00396183 -0.00694321)
(0.0802948 0.00197685 -0.00238357)
(0.084365 0.00104477 -0.00462225)
(0.0876988 0.00262864 -0.00721238)
(0.0855743 0.00266958 -0.00454649)
(0.0765266 0.00132491 -0.000994577)
(0.0650526 0.00134027 -0.00185784)
(0.0578913 0.00270512 -0.00446857)
(0.0571973 0.00309715 -0.00331003)
(0.0635186 0.00118711 -0.00372239)
(0.0806534 -0.00111761 -0.0109647)
(0.0977111 -0.00038986 -0.0139888)
(0.0937114 0.000977123 -0.00250044)
(0.077128 0.00210582 0.00710122)
(0.0789529 0.00177897 -0.00140627)
(0.0867143 -0.00118264 -0.01982)
(0.0952485 -0.00154934 -0.024633)
(0.101512 -3.17012e-005 -0.00995812)
(0.0933443 0.00209212 0.00207334)
(0.0857961 0.00474525 0.0067836)
(0.0815959 0.00509167 0.0113176)
(0.0803258 0.00171191 0.0127422)
(0.0872103 0.000313482 0.00593432)
(0.0926214 0.00185893 -0.00447951)
(0.085901 0.00117145 -0.00859853)
(0.0743728 -0.000458313 -0.00302461)
(0.0729874 -0.000231732 0.00525107)
(0.0732373 -0.000975494 0.00611621)
(0.0716126 0.00038155 -0.00132474)
(0.074295 0.00471664 -0.00838507)
(0.0770238 0.00536859 -0.00674776)
(0.0870992 0.00283901 0.000692913)
(0.0885377 0.000296989 -0.000878341)
(0.0931333 0.00226663 -0.00708581)
(0.0971176 0.00325281 -0.00746189)
(0.0914948 0.00153396 -0.00368534)
(0.076421 0.0011832 -0.00248692)
(0.0656381 0.00342722 -0.00456149)
(0.06303 0.00434427 -0.00342942)
(0.0682719 0.00194121 -0.00167439)
(0.0839305 -0.00198331 -0.00741559)
(0.0987271 -0.00226041 -0.0158422)
(0.099093 -0.000289152 -0.0085815)
(0.0898292 0.00170986 0.00642876)
(0.0958009 0.00213027 0.00447627)
(0.108767 -0.00121256 -0.0142421)
(0.112979 -0.00263997 -0.0268127)
(0.113217 -0.000830039 -0.0170664)
(0.100589 0.00193043 -0.00194041)
(0.0899679 0.00572789 0.00565688)
(0.0860933 0.00734424 0.010408)
(0.0862774 0.00349264 0.0113917)
(0.0891604 0.000236112 0.00666295)
(0.0964513 0.00133235 -0.00184636)
(0.100635 0.000698016 -0.00781322)
(0.0912403 -0.00148832 -0.00568459)
(0.0855179 -0.00138727 0.00434749)
(0.0840574 -0.00157921 0.0094342)
(0.0766073 -0.000609379 0.00198052)
(0.076435 0.00455369 -0.00754928)
(0.0816842 0.00665514 -0.00658054)
(0.0929035 0.00424435 0.00223576)
(0.093971 0.000445865 0.00367442)
(0.0962735 0.00177334 -0.00423363)
(0.103075 0.00345051 -0.00902267)
(0.103671 0.00161255 -0.00705605)
(0.0892876 0.000764944 -0.00405441)
(0.0747882 0.00366957 -0.00446397)
(0.0690215 0.00529977 -0.00381617)
(0.0721162 0.00314194 -0.00186687)
(0.0882291 -0.000948432 -0.00480204)
(0.10203 -0.00256318 -0.014476)
(0.100541 -0.00120114 -0.0124581)
(0.096297 0.000771601 0.00382238)
(0.10403 0.0020964 0.00745438)
(0.121156 -0.000385532 -0.00806379)
(0.127742 -0.00305194 -0.0244359)
(0.127392 -0.00169695 -0.0230184)
(0.111345 0.00114731 -0.00758883)
(0.0945741 0.00591799 0.00470908)
(0.0885836 0.00894255 0.010232)
(0.0925476 0.00540257 0.00906944)
(0.096401 0.000497519 0.00589716)
(0.101067 -0.000170688 0.00150766)
(0.115466 -0.00110872 -0.00491505)
(0.114918 -0.00288028 -0.00812741)
(0.104403 -0.00279494 0.00037837)
(0.0988374 -0.00219216 0.0107433)
(0.0852017 -0.00123715 0.00659519)
(0.0786011 0.00387947 -0.00507999)
(0.0845229 0.00732935 -0.00638948)
(0.0960621 0.00505788 0.00179804)
(0.098891 0.0010003 0.00579915)
(0.0991236 0.00150684 -0.000539296)
(0.105304 0.00354715 -0.00834528)
(0.110875 0.00167562 -0.00971174)
(0.101222 0.00018277 -0.00629407)
(0.0847926 0.00340754 -0.00450055)
(0.0760915 0.00596608 -0.00405839)
(0.0761481 0.00449186 -0.00238386)
(0.0893357 0.000666278 -0.00236294)
(0.105778 -0.00155084 -0.0107234)
(0.104965 -0.00105719 -0.0133248)
(0.101038 0.000305429 0.00092314)
(0.107082 0.00176132 0.00865886)
(0.122503 0.000256055 -0.00314188)
(0.131388 -0.00298478 -0.0198734)
(0.137664 -0.00297762 -0.0265628)
(0.126401 -0.000465459 -0.0142899)
(0.102618 0.00521796 0.00339188)
(0.0901754 0.00959532 0.00903387)
(0.0947577 0.0065852 0.00536775)
(0.102313 0.000603437 0.00496241)
(0.1041 -0.002428 0.00441874)
(0.11894 -0.00435622 -0.00262296)
(0.131088 -0.00511864 -0.00913903)
(0.124722 -0.00389211 -0.0044495)
(0.115087 -0.00250854 0.00777319)
(0.097359 -0.00149338 0.00979082)
(0.0837938 0.00292461 -0.000150734)
(0.0871387 0.00702014 -0.00453519)
(0.0991382 0.00510082 0.000586102)
(0.103425 0.00135849 0.00441531)
(0.10172 0.00113833 0.00155531)
(0.106138 0.00344749 -0.0062711)
(0.115279 0.0020616 -0.0109514)
(0.11159 -4.47311e-005 -0.00869572)
(0.0951282 0.00273263 -0.00547958)
(0.084141 0.00614198 -0.00460805)
(0.0821568 0.00607868 -0.00171644)
(0.0905395 0.00287548 0.00183541)
(0.105456 0.000191677 -0.0042484)
(0.107918 6.57638e-005 -0.00976399)
(0.104893 0.000806265 0.000331048)
(0.108574 0.00157953 0.0102318)
(0.118921 0.000337041 0.00266057)
(0.129254 -0.00310526 -0.0138232)
(0.142987 -0.00515289 -0.024774)
(0.141101 -0.00285576 -0.0177945)
(0.113316 0.00396047 -9.62306e-006)
(0.093274 0.00966459 0.00549871)
(0.0962349 0.00711543 0.00285434)
(0.104607 0.000175485 0.00568101)
(0.105781 -0.00443711 0.00672317)
(0.115381 -0.0073025 -0.0018849)
(0.130596 -0.00790772 -0.00945385)
(0.13393 -0.00503648 -0.00653136)
(0.128033 -0.00218166 0.00311312)
(0.110645 -0.00149823 0.00825296)
(0.0916549 0.00138239 0.00400647)
(0.0907602 0.00556552 -0.00119993)
(0.104221 0.00405052 -0.00117059)
(0.110511 0.00140113 0.000532627)
(0.106122 0.000475583 0.000537988)
(0.106837 0.00272178 -0.00441933)
(0.117924 0.00236942 -0.0102891)
(0.120169 0.000426252 -0.0103549)
(0.105718 0.00211187 -0.00756709)
(0.0925613 0.00597928 -0.00576324)
(0.0884923 0.00761918 -0.000522262)
(0.0933521 0.00528746 0.00610745)
(0.104033 0.0022438 0.00277156)
(0.107758 0.00161675 -0.00338505)
(0.10699 0.00165923 0.00179582)
(0.107949 0.00115911 0.0107198)
(0.110968 -0.000575433 0.00747905)
(0.124923 -0.00483188 -0.00635182)
(0.146503 -0.00798437 -0.017366)
(0.148942 -0.00496111 -0.0153448)
(0.11998 0.00316965 -0.00362738)
(0.0964605 0.00983441 0.000910075)
(0.0989332 0.00750735 0.00165607)
(0.10839 7.05009e-005 0.00629026)
(0.110045 -0.0054945 0.00802442)
(0.116958 -0.00887179 -0.000212892)
(0.128033 -0.00985502 -0.00907015)
(0.131648 -0.00653864 -0.0069174)
(0.1338 -0.0020043 0.000342292)
(0.126792 -0.000967355 0.00445197)
(0.105756 -0.000529606 0.00359995)
(0.09663 0.0027697 0.000112311)
(0.115383 0.00165351 -0.00235349)
(0.122396 0.000850755 -0.00269897)
(0.115955 -0.000357747 -0.00262217)
(0.110046 0.00128691 -0.00411134)
(0.118833 0.00199769 -0.00810829)
(0.125437 0.00110333 -0.0104204)
(0.115559 0.00195356 -0.00982433)
(0.101245 0.00591888 -0.00729623)
(0.0946496 0.00892487 0.000110438)
(0.097266 0.00695888 0.00823955)
(0.103946 0.0038307 0.0079016)
(0.10735 0.00304574 0.00310484)
(0.107279 0.00233538 0.00352387)
(0.105379 0.00105764 0.00886939)
(0.105625 -0.00222895 0.00996971)
(0.121189 -0.0087485 0.00240591)
(0.147924 -0.0117605 -0.00719472)
(0.151903 -0.00639849 -0.0102231)
(0.121784 0.00352386 -0.00627602)
(0.0978243 0.0102325 -0.00310868)
(0.100574 0.0074172 0.000918822)
(0.112136 1.1383e-005 0.0059091)
(0.115317 -0.00589064 0.00779881)
(0.119596 -0.0096399 0.00204327)
(0.129255 -0.0103238 -0.0075259)
(0.128774 -0.00736704 -0.00823735)
(0.130513 -0.00326929 -0.0016207)
(0.140095 -0.00113561 0.00332643)
(0.131712 -0.00152234 0.00301244)
(0.114739 -0.000385489 -0.000263092)
(0.132671 -0.000858636 -3.12771e-005)
(0.138127 3.98245e-005 -0.00179747)
(0.130682 -0.000884136 -0.0043248)
(0.117192 -0.000292373 -0.00471145)
(0.119521 0.00098362 -0.00571022)
(0.127836 0.00136488 -0.00915977)
(0.123415 0.00225302 -0.0110829)
(0.109281 0.00616242 -0.00816701)
(0.0999795 0.00953796 -0.000134604)
(0.100618 0.00761852 0.007781)
(0.104605 0.00482744 0.0102186)
(0.106959 0.00395912 0.00689731)
(0.106717 0.00271801 0.00365163)
(0.105732 0.00144978 0.00705837)
(0.108033 -0.00302439 0.0121832)
(0.121486 -0.0121182 0.0097371)
(0.146323 -0.0155734 0.000801624)
(0.15175 -0.00746931 -0.00656601)
(0.123241 0.00467246 -0.00798838)
(0.100726 0.0105926 -0.00462929)
(0.101009 0.00652333 0.00094643)
(0.111826 -0.000708067 0.00448119)
(0.118859 -0.0058646 0.00558792)
(0.120056 -0.0097454 0.00296644)
(0.127209 -0.0103962 -0.00499382)
(0.131182 -0.00734374 -0.00925886)
(0.130294 -0.00493836 -0.00491809)
(0.138997 -0.00347134 0.00251033)
(0.145295 -0.00299806 0.00492557)
(0.136592 -0.00278431 0.00205914)
(0.138247 -0.00335063 0.00372937)
(0.146013 -0.00107558 0.00232269)
(0.141124 -0.000985096 -0.00273085)
(0.124092 -0.00130033 -0.00483041)
(0.120327 -0.000618028 -0.00407366)
(0.1288 0.000673564 -0.00680154)
(0.128723 0.00275112 -0.0104014)
(0.114893 0.00677543 -0.00833918)
(0.103831 0.00937303 -0.000971234)
(0.102314 0.00695472 0.00669457)
(0.104199 0.00465465 0.0104512)
(0.107142 0.00407008 0.00742386)
(0.10921 0.00252581 0.00306983)
(0.10939 0.00126341 0.00639889)
(0.11293 -0.00332724 0.0129297)
(0.124857 -0.0137017 0.0122047)
(0.144007 -0.0178948 0.00358861)
(0.148469 -0.00819971 -0.00552038)
(0.124323 0.00557674 -0.00826302)
(0.105013 0.0109137 -0.00377897)
(0.103098 0.00600426 0.00141629)
(0.110307 -0.00120284 0.00280557)
(0.119945 -0.00553213 0.00286916)
(0.122906 -0.00862637 0.00270742)
(0.124852 -0.0102599 -0.00243223)
(0.133029 -0.00808203 -0.0079749)
(0.138198 -0.00588795 -0.00672377)
(0.139914 -0.00532552 -6.83136e-005)
(0.141422 -0.00520322 0.0044055)
(0.138197 -0.00527212 0.00397312)
(0.134502 -0.00552857 0.00748579)
(0.143133 -0.00262181 0.0067572)
(0.141147 -0.00150672 0.000258771)
(0.127307 -0.00214025 -0.00419416)
(0.122476 -0.00241932 -0.00295916)
(0.128869 -0.00104077 -0.00353935)
(0.131157 0.00242158 -0.00793312)
(0.120336 0.00778492 -0.00842898)
(0.108923 0.0101016 -0.00163154)
(0.103893 0.00641856 0.00693431)
(0.103228 0.00323888 0.0108981)
(0.109403 0.00284647 0.00793924)
(0.116585 0.00177614 0.00329754)
(0.116914 0.00083741 0.00509215)
(0.119553 -0.00367893 0.00984453)
(0.129971 -0.0142016 0.00960194)
(0.142851 -0.0188043 0.00319149)
(0.143463 -0.00858545 -0.00472183)
(0.122814 0.00590073 -0.00638985)
(0.108694 0.0106405 -0.00264679)
(0.108866 0.00556084 -8.30805e-005)
(0.113073 -0.000890591 0.000150791)
(0.120158 -0.00451255 0.000832842)
(0.126255 -0.00641512 0.00281589)
(0.128454 -0.00857965 -7.00393e-005)
(0.133801 -0.00875599 -0.00578948)
(0.141539 -0.00695671 -0.00655954)
(0.142944 -0.0056164 -0.00194523)
(0.138628 -0.00593465 0.00275846)
(0.133184 -0.00694858 0.00519928)
(0.129969 -0.00648366 0.0118195)
(0.137302 -0.0035423 0.0117942)
(0.139505 -0.00230671 0.00368642)
(0.131069 -0.0036732 -0.00271037)
(0.127087 -0.00444247 -0.00111161)
(0.130118 -0.00247199 0.00010952)
(0.13 0.00202903 -0.00515097)
(0.12064 0.00840061 -0.00817616)
(0.111802 0.0108053 -0.00172581)
(0.107288 0.00601204 0.00743481)
(0.103914 0.00101132 0.0121046)
(0.11166 -0.000755625 0.0112071)
(0.126967 -0.00143889 0.00700146)
(0.131795 -0.00079038 0.00441046)
(0.132059 -0.00377333 0.00539856)
(0.137628 -0.0132726 0.00572114)
(0.143227 -0.0181473 0.00268671)
(0.139194 -0.00801686 -0.00263334)
(0.123436 0.00602429 -0.00413321)
(0.117453 0.00939357 -0.00361188)
(0.120926 0.00447117 -0.00457425)
(0.121835 -0.000313331 -0.004579)
(0.122364 -0.00248211 -0.00122348)
(0.127237 -0.0035229 0.00331592)
(0.133245 -0.00564759 0.0017424)
(0.137444 -0.00779425 -0.00435017)
(0.141439 -0.00763548 -0.0064952)
(0.142726 -0.00566388 -0.00316218)
(0.139113 -0.0054009 0.0016131)
(0.132354 -0.00700285 0.00649807)
(0.127951 -0.00655742 0.0140726)
(0.131364 -0.00543513 0.0161668)
(0.140617 -0.00379395 0.00794865)
(0.138069 -0.00476874 -0.000764874)
(0.131272 -0.00635098 1.92047e-005)
(0.12992 -0.00407563 0.00305313)
(0.127105 0.00236719 -0.00114213)
(0.116672 0.0102375 -0.00563717)
(0.112756 0.0117588 -0.00195093)
(0.116964 0.00548396 0.00458334)
(0.11555 -0.000686376 0.00956856)
(0.118518 -0.0042931 0.0113496)
(0.134849 -0.00658614 0.0101518)
(0.147163 -0.00503931 0.0073358)
(0.148046 -0.004955 0.00501474)
(0.14698 -0.0117954 0.00345786)
(0.144818 -0.0162373 0.00229249)
(0.138071 -0.0072604 0.000602775)
(0.130278 0.00486084 -0.00143714)
(0.133263 0.00662724 -0.00457345)
(0.13888 0.00250323 -0.00879288)
(0.136618 0.000295983 -0.00997665)
(0.130208 0.000498013 -0.00499586)
(0.129791 7.06726e-005 0.00170493)
(0.136815 -0.00266258 0.00169445)
(0.142576 -0.00609128 -0.00414477)
(0.142546 -0.00734376 -0.00708624)
(0.140872 -0.00554126 -0.00428456)
(0.139992 -0.00423741 0.000781451)
(0.135507 -0.00530935 0.00673248)
(0.133514 -0.0046455 0.0139862)
(0.130753 -0.0072824 0.0173775)
(0.139436 -0.00705686 0.0112446)
(0.143221 -0.00548079 0.00228217)
(0.135092 -0.00612988 0.000532372)
(0.126219 -0.00536603 0.00359096)
(0.120709 0.00044391 0.00328505)
(0.116173 0.00834612 0.000645806)
(0.121559 0.00964352 -0.000394438)
(0.134174 0.00409015 5.01439e-005)
(0.138568 -0.000473061 0.00282577)
(0.135986 -0.00366155 0.00574658)
(0.139826 -0.00803512 0.00725618)
(0.150685 -0.00861091 0.00809341)
(0.157668 -0.00663005 0.00704271)
(0.156065 -0.00990723 0.00361074)
(0.148076 -0.0133904 0.00101928)
(0.139342 -0.00690678 0.00154986)
(0.137128 0.00206105 0.0021439)
(0.143733 0.00212642 0.000357556)
(0.15152 -0.00154642 -0.00440813)
(0.152416 -0.00064451 -0.00976069)
(0.14437 0.00308784 -0.00900482)
(0.137757 0.0035705 -0.00297528)
(0.141251 -0.000671267 -0.000689391)
(0.147567 -0.00517738 -0.0046386)
(0.145757 -0.00632144 -0.0077945)
(0.139931 -0.00460302 -0.00584282)
(0.13942 -0.00284593 -0.000785711)
(0.139834 -0.00272177 0.00598733)
(0.144126 -0.00179573 0.0110942)
(0.140466 -0.00546616 0.0153317)
(0.14029 -0.00857676 0.0117805)
(0.142755 -0.00741773 0.00512308)
(0.138125 -0.00525146 0.00220285)
(0.127023 -0.00381511 0.0037623)
(0.119676 0.000120009 0.00528681)
(0.122045 0.00526052 0.00357841)
(0.132676 0.00518003 -0.000783175)
(0.142004 0.000120171 -0.00340752)
(0.146009 -0.00276437 -0.00173203)
(0.144916 -0.0034956 0.00149668)
(0.142114 -0.0072723 0.00427997)
(0.144567 -0.0106249 0.00628217)
(0.153792 -0.00960178 0.00671044)
(0.158866 -0.00951864 0.00407649)
(0.152885 -0.0106066 0.000821415)
(0.144013 -0.00643362 0.000597243)
(0.141703 -0.000772453 0.00234024)
(0.144817 -0.00179281 0.00304431)
(0.150384 -0.00610977 0.00137492)
(0.156038 -0.00453014 -0.0037982)
(0.154972 0.00272988 -0.00823901)
(0.149577 0.00588436 -0.00665122)
(0.14866 0.00130069 -0.00348091)
(0.151353 -0.00446468 -0.00412574)
(0.149214 -0.00518019 -0.00674712)
(0.14265 -0.0028119 -0.0074791)
(0.1412 -0.0013219 -0.00445492)
(0.144339 -0.0010094 0.00246763)
(0.15124 -0.000631322 0.00391479)
(0.151837 -0.0024944 0.0103504)
(0.146381 -0.0056008 0.00966126)
(0.140974 -0.00702049 0.00566637)
(0.139378 -0.00605683 0.00408531)
(0.137523 -0.00363435 0.0048499)
(0.135845 4.64816e-006 0.00471583)
(0.138522 0.00384403 0.00124073)
(0.14247 0.0045543 -0.00343066)
(0.141866 0.000820694 -0.00423746)
(0.14048 -0.00299362 -0.000745515)
(0.1428 -0.0036271 0.00266798)
(0.144888 -0.0059544 0.00432044)
(0.144257 -0.0104787 0.00488017)
(0.147788 -0.0122768 0.00456418)
(0.154788 -0.0111886 0.00230933)
(0.15502 -0.0091652 2.92914e-005)
(0.149783 -0.00532728 0.000392428)
(0.146443 -0.00164182 0.0020758)
(0.145484 -0.00300404 0.00176763)
(0.14651 -0.00808779 -5.44198e-005)
(0.151233 -0.0086124 -0.00257758)
(0.156182 -0.00105291 -0.0066154)
(0.157224 0.00490881 -0.00802267)
(0.156151 0.00259936 -0.00586505)
(0.154396 -0.00281 -0.00420268)
(0.150869 -0.00383064 -0.00455287)
(0.146397 -0.00109515 -0.00669624)
(0.144793 0.000268389 -0.00823771)
(0.147224 -0.000221966 -0.00461204)
(0.151519 -0.0011741 -0.00322885)
(0.155422 -0.00205497 0.00451137)
(0.152679 -0.00306419 0.00779179)
(0.145873 -0.00429284 0.00601262)
(0.142061 -0.0053296 0.00343887)
(0.143013 -0.00446272 0.00233858)
(0.14553 -0.00129627 0.00111358)
(0.146992 0.00332337 -0.00161477)
(0.146421 0.00607277 -0.00464533)
(0.143563 0.00307501 -0.00550704)
(0.141002 -0.00304024 -0.00297504)
(0.144446 -0.00527968 0.000591306)
(0.15099 -0.00586576 0.00274657)
(0.152174 -0.00888988 0.00301181)
(0.150088 -0.0123004 0.00184428)
(0.151026 -0.0125325 -0.000141365)
(0.152582 -0.00913287 -0.00152124)
(0.152034 -0.00438811 -0.000569363)
(0.150939 -0.00108176 0.00140508)
(0.149314 -0.00224489 0.000752067)
(0.147165 -0.00762462 -0.00182139)
(0.147921 -0.0106064 -0.00386385)
(0.15379 -0.00571331 -0.00655421)
(0.159503 0.00128864 -0.00874291)
(0.159731 0.00264278 -0.00744051)
(0.155962 -0.000262058 -0.0043981)
(0.151529 -0.00141678 -0.00284476)
(0.148122 0.000470906 -0.00487295)
(0.146211 0.00128697 -0.00906776)
(0.146907 -3.5108e-005 -0.00935773)
(0.149073 -0.00176177 -0.00669126)
(0.15413 -0.00238694 0.000542592)
(0.154957 -0.00277393 0.00607248)
(0.15187 -0.00291465 0.00676998)
(0.148156 -0.00326017 0.00337947)
(0.144932 -0.00313641 -0.000736337)
(0.143119 -0.000879199 -0.0034292)
(0.143363 0.00372234 -0.00516161)
(0.145487 0.00703283 -0.00697442)
(0.147388 0.00461646 -0.00780478)
(0.146697 -0.00179375 -0.00626245)
(0.147889 -0.00596706 -0.00321633)
(0.153515 -0.00694258 8.72322e-006)
(0.156847 -0.00837265 0.00164641)
(0.155022 -0.0109832 0.000439625)
(0.151855 -0.0121247 -0.00168111)
(0.150542 -0.00928023 -0.00244678)
(0.151162 -0.00401349 -0.00144154)
(0.152378 -0.000343397 -0.000107313)
(0.151915 -0.00125112 -0.000737678)
(0.148677 -0.00679386 -0.00235526)
(0.146303 -0.011227 -0.00296457)
(0.150433 -0.00897382 -0.0046877)
(0.156971 -0.00253109 -0.00768148)
(0.157759 0.00176215 -0.00746043)
(0.154386 0.0020996 -0.00362651)
(0.151176 0.00171858 -0.0010367)
(0.148405 0.00258944 -0.00336114)
(0.145893 0.00210707 -0.00867726)
(0.145375 -0.000217194 -0.0107669)
(0.147372 -0.00210033 -0.00687437)
(0.152828 -0.00231587 -0.00123624)
(0.154565 -0.00230468 0.00423851)
(0.152952 -0.00229826 0.00664768)
(0.151829 -0.00201103 0.00470694)
(0.149119 -0.00124277 0.000144841)
(0.143492 0.000595928 -0.00397446)
(0.139679 0.00359361 -0.0064511)
(0.141973 0.00525622 -0.0082231)
(0.147446 0.00279939 -0.0087874)
(0.149341 -0.0023234 -0.00692322)
(0.149402 -0.00600801 -0.00415456)
(0.151877 -0.00714418 -0.00147658)
(0.154324 -0.00819937 0.000497615)
(0.154247 -0.0100546 -0.000123974)
(0.151974 -0.011014 -0.00216515)
(0.149579 -0.00863369 -0.0025895)
(0.149242 -0.00376488 -0.00124228)
(0.150635 -0.000154223 -0.000222568)
(0.151189 -0.000574405 -0.00112631)
(0.148559 -0.0055085 -0.00242861)
(0.144338 -0.0109862 -0.00199756)
(0.144882 -0.0112882 -0.0026293)
(0.149037 -0.00609661 -0.00574693)
(0.150025 0.000242417 -0.0064817)
(0.148505 0.00377309 -0.00256713)
(0.14776 0.00452685 0.000416003)
(0.14716 0.00441316 -0.00221822)
(0.1455 0.00269317 -0.00762943)
(0.144375 -0.000311802 -0.00974928)
(0.146407 -0.00161436 -0.00446505)
(0.151521 -0.00204028 -0.00112875)
(0.154467 -0.00157136 0.00251288)
(0.153174 -0.00122417 0.00573144)
(0.15104 -0.000713786 0.00610983)
(0.148668 0.000816867 0.00304383)
(0.144377 0.00292861 -0.00117449)
(0.14121 0.00426771 -0.00438796)
(0.143374 0.00368958 -0.00685921)
(0.14805 0.00111789 -0.00785707)
(0.149117 -0.0024062 -0.00593558)
(0.148247 -0.00545198 -0.00313219)
(0.149461 -0.00720703 -0.00115428)
(0.151443 -0.00831539 0.000175096)
(0.151869 -0.00949318 -0.000212762)
(0.150458 -0.00964493 -0.0018439)
(0.148201 -0.00691453 -0.00179333)
(0.14682 -0.00253325 4.04345e-005)
(0.14738 0.000188779 0.000787706)
(0.148936 -0.000308185 -0.000623231)
(0.148801 -0.00416418 -0.00184939)
(0.145231 -0.00950839 -0.00111187)
(0.141869 -0.0119132 -0.00136083)
(0.141623 -0.00875583 -0.00439684)
(0.142001 -0.00174068 -0.00566398)
(0.142474 0.00420713 -0.00238003)
(0.143797 0.00622239 0.000447876)
(0.144999 0.00558686 -0.00185086)
(0.144795 0.00346544 -0.0062016)
(0.144165 0.000512271 -0.00702365)
(0.14706 8.33624e-005 -0.00186337)
(0.151376 -0.00132955 0.000623794)
(0.154241 -0.00122252 0.00207707)
(0.153367 0.00016249 0.00435806)
(0.150439 0.00159658 0.00596705)
(0.14723 0.00281974 0.00455205)
(0.144308 0.00384867 0.000939178)
(0.143342 0.00345515 -0.00284669)
(0.14611 0.00165145 -0.00575347)
(0.150415 0.000325162 -0.00639134)
(0.151732 -0.000420913 -0.00388329)
(0.150678 -0.00217227 -0.000846934)
(0.150406 -0.00477509 0.000558235)
(0.150964 -0.00703792 0.000975811)
(0.150975 -0.00840084 0.00043816)
(0.149807 -0.00799699 -0.000933384)
(0.147708 -0.00474508 -0.00109753)
(0.145256 -0.000418343 0.000150882)
(0.144248 0.00148118 0.000619359)
(0.146272 5.8815e-006 -0.000429123)
(0.150094 -0.00383492 -0.0012181)
(0.151592 -0.00852439 -0.000457787)
(0.148618 -0.0114105 -0.000509674)
(0.143859 -0.00995226 -0.0033561)
(0.140165 -0.00364441 -0.00550524)
(0.139355 0.00343075 -0.00357665)
(0.141262 0.00664681 -0.000965703)
(0.143594 0.0061926 -0.00247506)
(0.144452 0.00434714 -0.00580423)
(0.144738 0.00219769 -0.00539475)
(0.148705 0.00185316 -0.000344951)
(0.152198 0.00035874 0.00392522)
(0.154859 -0.000209111 0.0051035)
(0.155057 0.00122047 0.0051733)
(0.153058 0.00330107 0.0052175)
(0.149576 0.00441769 0.00385024)
(0.146052 0.00461469 0.00107617)
(0.145058 0.00391224 -0.00149413)
(0.147365 0.0023246 -0.00266969)
(0.150142 0.0016529 -0.00211491)
(0.150267 0.00196633 0.000211682)
(0.149049 0.000450548 0.00244491)
(0.149077 -0.00317274 0.00279082)
(0.149925 -0.00657505 0.00204079)
(0.149541 -0.00815126 0.00110376)
(0.146896 -0.00683305 -8.17461e-005)
(0.143282 -0.00251859 -0.000911431)
(0.140768 0.0019857 -0.000814246)
(0.141579 0.00282124 -0.000370601)
(0.146771 -0.000410126 -5.44611e-005)
(0.154476 -0.00536581 0.000358494)
(0.160178 -0.0100094 0.00100902)
(0.159448 -0.0125751 0.000462905)
(0.152946 -0.0116144 -0.00238336)
(0.145141 -0.00605426 -0.00515671)
(0.140542 0.0015625 -0.00472766)
(0.140422 0.0061963 -0.00259344)
(0.142597 0.00651034 -0.00320432)
(0.144604 0.00475411 -0.00582897)
(0.146161 0.00314265 -0.00516399)
(0.149349 0.00309243 0.00065316)
(0.153674 0.00168097 0.00620605)
(0.1565 0.000579897 0.00838444)
(0.156711 0.00193565 0.00720836)
(0.154681 0.00460205 0.00481812)
(0.151152 0.00579214 0.0021733)
(0.147413 0.00537513 -0.000186609)
(0.1458 0.00441334 -0.00117814)
(0.147273 0.00308663 -0.000534425)
(0.149244 0.0027396 0.000944724)
(0.14925 0.00334717 0.00273824)
(0.14861 0.00187221 0.00396148)
(0.14878 -0.00212043 0.00328441)
(0.148845 -0.00582352 0.00149693)
(0.147246 -0.00719686 0.000196817)
(0.143254 -0.00545863 -0.000255326)
(0.138899 -0.0012655 -0.000214812)
(0.13754 0.00222802 0.000244261)
(0.141413 0.00159795 0.00105989)
(0.150042 -0.00267905 0.00214801)
(0.16009 -0.00786159 0.00324266)
(0.166433 -0.011811 0.00343221)
(0.164923 -0.0132953 0.00166311)
(0.156811 -0.0117051 -0.00140687)
(0.147396 -0.00654795 -0.00364624)
(0.141147 0.000642769 -0.00364168)
(0.13934 0.00586574 -0.00222783)
(0.140508 0.00694729 -0.00236783)
(0.142761 0.00543423 -0.00439058)